Generated by gmx solvate
 3005
   88ALK    CA1    1   2.532   0.000   2.058
   88ALK    CA2    2   2.658   0.000   2.144
   88ALK    CA3    3   2.785   0.000   2.058
   88ALK    CA4    4   2.912   0.000   2.144
   88ALK    CA5    5   3.039   0.000   2.058
   89SOL     OW    6   0.230   0.628   0.113
   89SOL    HW1    7   0.137   0.626   0.150
   89SOL    HW2    8   0.231   0.589   0.021
   90SOL     OW    9   0.225   0.275   0.996
   90SOL    HW1   10   0.260   0.258   1.088
   90SOL    HW2   11   0.137   0.230   0.984
   91SOL     OW   12   0.019   0.368   0.647
   91SOL    HW1   13  -0.063   0.411   0.686
   91SOL    HW2   14  -0.009   0.295   0.584
   92SOL     OW   15   1.135   0.703   0.717
   92SOL    HW1   16   1.192   0.781   0.692
   92SOL    HW2   17   1.075   0.729   0.793
   93SOL     OW   18   1.755   0.607   0.231
   93SOL    HW1   19   1.743   0.594   0.132
   93SOL    HW2   20   1.725   0.526   0.280
   94SOL     OW   21   0.768   1.144   1.023
   94SOL    HW1   22   0.690   1.161   1.083
   94SOL    HW2   23   0.802   1.231   0.987
   95SOL     OW   24   0.850   0.798   1.823
   95SOL    HW1   25   0.846   0.874   1.888
   95SOL    HW2   26   0.872   0.834   1.732
   96SOL     OW   27   0.686   1.161   1.803
   96SOL    HW1   28   0.746   1.240   1.817
   96SOL    HW2   29   0.600   1.192   1.762
   97SOL     OW   30   0.231   1.713   0.483
   97SOL    HW1   31   0.265   1.790   0.537
   97SOL    HW2   32   0.275   1.713   0.393
   98SOL     OW   33   0.230   1.434   0.538
   98SOL    HW1   34   0.204   1.530   0.538
   98SOL    HW2   35   0.159   1.380   0.583
   99SOL     OW   36   0.240   1.091   0.886
   99SOL    HW1   37   0.254   1.007   0.938
   99SOL    HW2   38   0.185   1.155   0.941
  100SOL     OW   39   0.606   0.964   0.123
  100SOL    HW1   40   0.613   1.048   0.069
  100SOL    HW2   41   0.652   0.977   0.211
  101SOL     OW   42   0.122   0.643   0.563
  101SOL    HW1   43   0.077   0.555   0.580
  101SOL    HW2   44   0.121   0.697   0.647
  102SOL     OW   45   0.027   1.596   0.117
  102SOL    HW1   46   0.008   1.500   0.138
  102SOL    HW2   47  -0.006   1.654   0.192
  103SOL     OW   48   1.689   0.922   0.612
  103SOL    HW1   49   1.784   0.893   0.620
  103SOL    HW2   50   1.681   0.987   0.537
  104SOL     OW   51   0.113   0.737   1.597
  104SOL    HW1   52   0.201   0.724   1.642
  104SOL    HW2   53   0.100   0.834   1.575
  105SOL     OW   54   0.613   1.365   0.726
  105SOL    HW1   55   0.564   1.278   0.735
  105SOL    HW2   56   0.590   1.408   0.639
  106SOL     OW   57   0.809   0.004   0.502
  106SOL    HW1   58   0.849   0.095   0.493
  106SOL    HW2   59   0.709   0.012   0.508
  107SOL     OW   60   0.197   0.976   1.264
  107SOL    HW1   61   0.286   0.931   1.250
  107SOL    HW2   62   0.124   0.911   1.245
  108SOL     OW   63   1.187   1.792   1.616
  108SOL    HW1   64   1.211   1.852   1.540
  108SOL    HW2   65   1.194   1.697   1.586
  109SOL     OW   66   0.317   0.251   1.801
  109SOL    HW1   67   0.388   0.322   1.807
  109SOL    HW2   68   0.229   0.290   1.829
  110SOL     OW   69   0.598   0.729   0.270
  110SOL    HW1   70   0.622   0.798   0.202
  110SOL    HW2   71   0.520   0.762   0.324
  111SOL     OW   72   0.991   0.410   1.242
  111SOL    HW1   73   0.914   0.444   1.296
  111SOL    HW2   74   0.957   0.359   1.163
  112SOL     OW   75   1.041   0.701   0.429
  112SOL    HW1   76   1.067   0.697   0.525
  112SOL    HW2   77   0.956   0.650   0.415
  113SOL     OW   78   0.076   0.811   0.789
  113SOL    HW1   79   0.175   0.799   0.798
  113SOL    HW2   80   0.052   0.906   0.810
  114SOL     OW   81   0.130   1.821   1.571
  114SOL    HW1   82   0.120   1.806   1.670
  114SOL    HW2   83   0.044   1.857   1.535
  115SOL     OW   84   0.550   0.196   0.885
  115SOL    HW1   85   0.545   0.191   0.985
  115SOL    HW2   86   0.552   0.292   0.856
  116SOL     OW   87   1.008   1.456   0.477
  116SOL    HW1   88   0.962   1.528   0.425
  116SOL    HW2   89   1.004   1.476   0.575
  117SOL     OW   90   0.351   1.801   0.853
  117SOL    HW1   91   0.401   1.715   0.859
  117SOL    HW2   92   0.416   1.878   0.850
  118SOL     OW   93   1.227   1.550   1.506
  118SOL    HW1   94   1.233   1.473   1.570
  118SOL    HW2   95   1.175   1.524   1.426
  119SOL     OW   96   1.458   0.735   0.728
  119SOL    HW1   97   1.453   0.670   0.803
  119SOL    HW2   98   1.538   0.794   0.741
  120SOL     OW   99   0.461   1.266   1.727
  120SOL    HW1  100   0.411   1.267   1.641
  120SOL    HW2  101   0.398   1.248   1.803
  121SOL     OW  102   1.111   1.776   0.237
  121SOL    HW1  103   1.051   1.714   0.287
  121SOL    HW2  104   1.142   1.732   0.152
  122SOL     OW  105   0.464   1.743   0.323
  122SOL    HW1  106   0.497   1.782   0.409
  122SOL    HW2  107   0.540   1.736   0.258
  123SOL     OW  108   1.400   0.107   0.426
  123SOL    HW1  109   1.376   0.070   0.336
  123SOL    HW2  110   1.499   0.123   0.430
  124SOL     OW  111   0.940   1.698   0.904
  124SOL    HW1  112   1.020   1.641   0.925
  124SOL    HW2  113   0.891   1.658   0.827
  125SOL     OW  114   1.547   0.222   1.729
  125SOL    HW1  115   1.542   0.259   1.821
  125SOL    HW2  116   1.475   0.153   1.717
  126SOL     OW  117   0.614   0.122   0.117
  126SOL    HW1  118   0.712   0.100   0.124
  126SOL    HW2  119   0.583   0.105   0.024
  127SOL     OW  120   1.032   0.549   0.016
  127SOL    HW1  121   0.991   0.631  -0.023
  127SOL    HW2  122   1.096   0.575   0.089
  128SOL     OW  123   0.561   0.222   1.147
  128SOL    HW1  124   0.599   0.138   1.184
  128SOL    HW2  125   0.473   0.241   1.191
  129SOL     OW  126   1.857   0.833   0.377
  129SOL    HW1  127   1.899   0.769   0.441
  129SOL    HW2  128   1.819   0.782   0.299
  130SOL     OW  129   1.664   1.280   0.657
  130SOL    HW1  130   1.763   1.288   0.671
  130SOL    HW2  131   1.619   1.364   0.688
  131SOL     OW  132   1.754   1.223   1.588
  131SOL    HW1  133   1.845   1.184   1.575
  131SOL    HW2  134   1.762   1.319   1.612
  132SOL     OW  135   1.064   1.347   1.340
  132SOL    HW1  136   0.984   1.324   1.395
  132SOL    HW2  137   1.147   1.321   1.389
  133SOL     OW  138   1.592   1.629   1.625
  133SOL    HW1  139   1.619   1.663   1.535
  133SOL    HW2  140   1.671   1.591   1.671
  134SOL     OW  141   0.980   1.116   1.719
  134SOL    HW1  142   0.881   1.122   1.729
  134SOL    HW2  143   1.003   1.036   1.663
  135SOL     OW  144   0.705   1.050   0.368
  135SOL    HW1  145   0.691   1.057   0.467
  135SOL    HW2  146   0.789   0.999   0.350
  136SOL     OW  147   1.274   0.386   1.262
  136SOL    HW1  148   1.295   0.460   1.326
  136SOL    HW2  149   1.185   0.403   1.219
  137SOL     OW  150   0.064   1.564   1.331
  137SOL    HW1  151   0.018   1.646   1.297
  137SOL    HW2  152   0.162   1.583   1.340
  138SOL     OW  153   0.367   1.100   0.501
  138SOL    HW1  154   0.360   1.183   0.445
  138SOL    HW2  155   0.371   1.020   0.441
  139SOL     OW  156   1.252   1.348   0.388
  139SOL    HW1  157   1.302   1.425   0.428
  139SOL    HW2  158   1.157   1.350   0.420
  140SOL     OW  159   1.587   0.779   1.670
  140SOL    HW1  160   1.495   0.817   1.665
  140SOL    HW2  161   1.647   0.826   1.605
  141SOL     OW  162   1.013   0.105   1.770
  141SOL    HW1  163   1.019   0.190   1.718
  141SOL    HW2  164   1.045   0.029   1.713
  142SOL     OW  165   0.504   0.050   1.740
  142SOL    HW1  166   0.462  -0.007   1.670
  142SOL    HW2  167   0.438   0.119   1.772
  143SOL     OW  168   1.360   0.862   1.045
  143SOL    HW1  169   1.285   0.862   0.979
  143SOL    HW2  170   1.397   0.770   1.054
  144SOL     OW  171   0.307   0.213   1.231
  144SOL    HW1  172   0.284   0.250   1.321
  144SOL    HW2  173   0.277   0.118   1.225
  145SOL     OW  174   0.037   1.310   1.282
  145SOL    HW1  175   0.090   1.261   1.350
  145SOL    HW2  176   0.059   1.408   1.287
  146SOL     OW  177   1.728   0.935   1.854
  146SOL    HW1  178   1.682   0.928   1.765
  146SOL    HW2  179   1.666   0.979   1.920
  147SOL     OW  180   0.350   0.898   1.804
  147SOL    HW1  181   0.426   0.942   1.852
  147SOL    HW2  182   0.385   0.851   1.722
  148SOL     OW  183   1.303   0.838   0.042
  148SOL    HW1  184   1.337   0.745   0.057
  148SOL    HW2  185   1.321   0.865  -0.053
  149SOL     OW  186   0.319   0.810   0.949
  149SOL    HW1  187   0.412   0.846   0.954
  149SOL    HW2  188   0.313   0.725   1.001
  150SOL     OW  189   0.339   0.509   1.006
  150SOL    HW1  190   0.287   0.426   0.989
  150SOL    HW2  191   0.416   0.514   0.942
  151SOL     OW  192   0.008   1.326   0.200
  151SOL    HW1  193  -0.085   1.347   0.169
  151SOL    HW2  194   0.018   1.227   0.213
  152SOL     OW  195   1.002   0.796   1.238
  152SOL    HW1  196   1.043   0.764   1.324
  152SOL    HW2  197   0.906   0.769   1.235
  153SOL     OW  198   1.657   0.604   1.206
  153SOL    HW1  199   1.619   0.535   1.268
  153SOL    HW2  200   1.739   0.568   1.162
  154SOL     OW  201   0.252   1.564   1.744
  154SOL    HW1  202   0.222   1.621   1.820
  154SOL    HW2  203   0.245   1.467   1.770
  155SOL     OW  204   0.159   1.137   1.466
  155SOL    HW1  205   0.181   1.076   1.542
  155SOL    HW2  206   0.169   1.088   1.380
  156SOL     OW  207   1.347   1.059   1.234
  156SOL    HW1  208   1.371   0.996   1.160
  156SOL    HW2  209   1.257   1.099   1.216
  157SOL     OW  210   1.302   0.855   0.309
  157SOL    HW1  211   1.216   0.824   0.351
  157SOL    HW2  212   1.298   0.841   0.210
  158SOL     OW  213   1.759   1.747   1.154
  158SOL    HW1  214   1.820   1.777   1.081
  158SOL    HW2  215   1.721   1.658   1.132
  159SOL     OW  216   1.388   1.573   0.477
  159SOL    HW1  217   1.455   1.585   0.403
  159SOL    HW2  218   1.348   1.662   0.500
  160SOL     OW  219   1.841   0.175   0.963
  160SOL    HW1  220   1.880   0.090   0.927
  160SOL    HW2  221   1.743   0.177   0.944
  161SOL     OW  222   1.194   1.612   0.031
  161SOL    HW1  223   1.200   1.519   0.068
  161SOL    HW2  224   1.135   1.612  -0.049
  162SOL     OW  225   1.614   1.292   1.289
  162SOL    HW1  226   1.674   1.295   1.369
  162SOL    HW2  227   1.539   1.356   1.302
  163SOL     OW  228   0.590   1.487   0.491
  163SOL    HW1  229   0.632   1.429   0.421
  163SOL    HW2  230   0.546   1.566   0.447
  164SOL     OW  231   1.709   0.385   1.381
  164SOL    HW1  232   1.782   0.454   1.385
  164SOL    HW2  233   1.737   0.310   1.322
  165SOL     OW  234   0.255   1.348   0.290
  165SOL    HW1  235   0.159   1.349   0.263
  165SOL    HW2  236   0.267   1.401   0.374
  166SOL     OW  237   0.105   1.013   1.726
  166SOL    HW1  238   0.028   0.980   1.780
  166SOL    HW2  239   0.190   0.983   1.768
  167SOL     OW  240   0.672   0.203   1.489
  167SOL    HW1  241   0.762   0.187   1.449
  167SOL    HW2  242   0.680   0.208   1.588
  168SOL     OW  243   1.183   1.335   0.119
  168SOL    HW1  244   1.084   1.324   0.121
  168SOL    HW2  245   1.217   1.350   0.212
  169SOL     OW  246   0.716   0.565   1.708
  169SOL    HW1  247   0.735   0.630   1.782
  169SOL    HW2  248   0.776   0.485   1.717
  170SOL     OW  249   1.450   1.220   1.633
  170SOL    HW1  250   1.441   1.210   1.732
  170SOL    HW2  251   1.546   1.213   1.607
  171SOL     OW  252   1.674   0.883   1.254
  171SOL    HW1  253   1.647   0.794   1.217
  171SOL    HW2  254   1.675   0.951   1.181
  172SOL     OW  255   0.859   1.374   0.016
  172SOL    HW1  256   0.813   1.389   0.104
  172SOL    HW2  257   0.903   1.459  -0.014
  173SOL     OW  258   0.859   0.956   0.861
  173SOL    HW1  259   0.913   0.887   0.909
  173SOL    HW2  260   0.827   1.025   0.927
  174SOL     OW  261   1.083   0.984   0.087
  174SOL    HW1  262   1.060   1.037   0.005
  174SOL    HW2  263   1.164   0.928   0.068
  175SOL     OW  264   1.824   0.192   1.227
  175SOL    HW1  265   1.820   0.102   1.271
  175SOL    HW2  266   1.827   0.181   1.128
  176SOL     OW  267   1.705   1.487   1.104
  176SOL    HW1  268   1.612   1.462   1.077
  176SOL    HW2  269   1.731   1.437   1.186
  177SOL     OW  270   1.424   0.214   1.112
  177SOL    HW1  271   1.476   0.149   1.167
  177SOL    HW2  272   1.375   0.277   1.173
  178SOL     OW  273   0.039   1.077   0.300
  178SOL    HW1  274   0.138   1.066   0.291
  178SOL    HW2  275  -0.001   0.991   0.332
  179SOL     OW  276   0.225   0.275   2.858
  179SOL    HW1  277   0.260   0.258   2.950
  179SOL    HW2  278   0.137   0.230   2.846
  180SOL     OW  279   0.569   1.275   3.027
  180SOL    HW1  280   0.476   1.268   2.990
  180SOL    HW2  281   0.580   1.364   3.071
  181SOL     OW  282   1.135   0.703   2.579
  181SOL    HW1  283   1.192   0.781   2.554
  181SOL    HW2  284   1.075   0.729   2.655
  182SOL     OW  285   0.768   1.144   2.885
  182SOL    HW1  286   0.690   1.161   2.945
  182SOL    HW2  287   0.802   1.231   2.849
  183SOL     OW  288   0.850   0.798   3.685
  183SOL    HW1  289   0.846   0.874   3.750
  183SOL    HW2  290   0.872   0.834   3.594
  184SOL     OW  291   0.686   1.161   3.665
  184SOL    HW1  292   0.746   1.240   3.679
  184SOL    HW2  293   0.600   1.192   3.624
  185SOL     OW  294   0.438   0.392   3.361
  185SOL    HW1  295   0.520   0.336   3.370
  185SOL    HW2  296   0.357   0.334   3.365
  186SOL     OW  297   1.603   0.447   2.599
  186SOL    HW1  298   1.529   0.493   2.549
  186SOL    HW2  299   1.654   0.515   2.652
  187SOL     OW  300   0.231   1.713   2.345
  187SOL    HW1  301   0.265   1.790   2.399
  187SOL    HW2  302   0.275   1.713   2.255
  188SOL     OW  303   0.240   1.091   2.748
  188SOL    HW1  304   0.254   1.007   2.800
  188SOL    HW2  305   0.185   1.155   2.803
  189SOL     OW  306   0.606   0.964   1.985
  189SOL    HW1  307   0.613   1.048   1.931
  189SOL    HW2  308   0.652   0.977   2.073
  190SOL     OW  309   1.594   0.114   3.342
  190SOL    HW1  310   1.576   0.181   3.270
  190SOL    HW2  311   1.591   0.160   3.431
  191SOL     OW  312   1.842   1.767   2.221
  191SOL    HW1  313   1.896   1.738   2.301
  191SOL    HW2  314   1.872   1.857   2.192
  192SOL     OW  315   0.027   1.596   1.979
  192SOL    HW1  316   0.008   1.500   2.000
  192SOL    HW2  317  -0.006   1.654   2.054
  193SOL     OW  318   0.613   1.365   2.588
  193SOL    HW1  319   0.564   1.278   2.597
  193SOL    HW2  320   0.590   1.408   2.501
  194SOL     OW  321   0.809   0.004   2.364
  194SOL    HW1  322   0.849   0.095   2.355
  194SOL    HW2  323   0.709   0.012   2.370
  195SOL     OW  324   1.187   1.792   3.478
  195SOL    HW1  325   1.211   1.852   3.402
  195SOL    HW2  326   1.194   1.697   3.448
  196SOL     OW  327   1.466   1.417   2.815
  196SOL    HW1  328   1.407   1.423   2.895
  196SOL    HW2  329   1.451   1.329   2.769
  197SOL     OW  330   1.667   1.714   2.434
  197SOL    HW1  331   1.626   1.691   2.346
  197SOL    HW2  332   1.649   1.640   2.499
  198SOL     OW  333   1.281   0.345   2.806
  198SOL    HW1  334   1.195   0.295   2.793
  198SOL    HW2  335   1.343   0.291   2.862
  199SOL     OW  336   0.807   0.605   3.327
  199SOL    HW1  337   0.760   0.602   3.416
  199SOL    HW2  338   0.756   0.550   3.261
  200SOL     OW  339   0.076   0.811   2.651
  200SOL    HW1  340   0.175   0.799   2.660
  200SOL    HW2  341   0.052   0.906   2.672
  201SOL     OW  342   0.130   1.821   3.433
  201SOL    HW1  343   0.120   1.806   3.532
  201SOL    HW2  344   0.044   1.857   3.397
  202SOL     OW  345   1.719   0.585   3.693
  202SOL    HW1  346   1.693   0.674   3.657
  202SOL    HW2  347   1.717   0.517   3.620
  203SOL     OW  348   1.008   1.456   2.339
  203SOL    HW1  349   0.962   1.528   2.287
  203SOL    HW2  350   1.004   1.476   2.437
  204SOL     OW  351   1.458   0.735   2.590
  204SOL    HW1  352   1.453   0.670   2.665
  204SOL    HW2  353   1.538   0.794   2.603
  205SOL     OW  354   0.461   1.266   3.589
  205SOL    HW1  355   0.411   1.267   3.503
  205SOL    HW2  356   0.398   1.248   3.665
  206SOL     OW  357   0.202   0.285   3.360
  206SOL    HW1  358   0.122   0.345   3.347
  206SOL    HW2  359   0.192   0.236   3.446
  207SOL     OW  360   0.614   0.122   1.979
  207SOL    HW1  361   0.712   0.100   1.986
  207SOL    HW2  362   0.583   0.105   1.886
  208SOL     OW  363   0.781   0.264   3.611
  208SOL    HW1  364   0.848   0.203   3.654
  208SOL    HW2  365   0.708   0.283   3.676
  209SOL     OW  366   0.803   1.402   2.786
  209SOL    HW1  367   0.893   1.416   2.744
  209SOL    HW2  368   0.732   1.404   2.715
  210SOL     OW  369   0.922   0.503   2.761
  210SOL    HW1  370   0.897   0.494   2.665
  210SOL    HW2  371   0.970   0.421   2.792
  211SOL     OW  372   0.297   0.035   2.033
  211SOL    HW1  373   0.346   0.119   2.012
  211SOL    HW2  374   0.359  -0.030   2.078
  212SOL     OW  375   1.076   0.683   3.326
  212SOL    HW1  376   0.996   0.622   3.329
  212SOL    HW2  377   1.157   0.630   3.302
  213SOL     OW  378   0.459   1.152   2.603
  213SOL    HW1  379   0.388   1.125   2.668
  213SOL    HW2  380   0.433   1.124   2.510
  214SOL     OW  381   1.032   0.549   1.878
  214SOL    HW1  382   0.991   0.631   1.839
  214SOL    HW2  383   1.096   0.575   1.951
  215SOL     OW  384   0.866   0.454   2.504
  215SOL    HW1  385   0.834   0.526   2.442
  215SOL    HW2  386   0.890   0.373   2.451
  216SOL     OW  387   1.466   0.590   2.854
  216SOL    HW1  388   1.436   0.495   2.861
  216SOL    HW2  389   1.539   0.606   2.920
  217SOL     OW  390   0.488   1.385   2.036
  217SOL    HW1  391   0.401   1.370   2.083
  217SOL    HW2  392   0.471   1.411   1.941
  218SOL     OW  393   1.664   1.280   2.519
  218SOL    HW1  394   1.763   1.288   2.533
  218SOL    HW2  395   1.619   1.364   2.550
  219SOL     OW  396   1.754   1.223   3.450
  219SOL    HW1  397   1.845   1.184   3.437
  219SOL    HW2  398   1.762   1.319   3.474
  220SOL     OW  399   1.111   1.195   2.962
  220SOL    HW1  400   1.071   1.239   3.043
  220SOL    HW2  401   1.070   1.232   2.879
  221SOL     OW  402   1.638   1.099   2.941
  221SOL    HW1  403   1.643   1.180   3.000
  221SOL    HW2  404   1.552   1.101   2.890
  222SOL     OW  405   0.980   1.116   3.581
  222SOL    HW1  406   0.881   1.122   3.591
  222SOL    HW2  407   1.003   1.036   3.525
  223SOL     OW  408   0.705   1.050   2.230
  223SOL    HW1  409   0.691   1.057   2.329
  223SOL    HW2  410   0.789   0.999   2.212
  224SOL     OW  411   0.410   0.813   3.113
  224SOL    HW1  412   0.496   0.825   3.163
  224SOL    HW2  413   0.368   0.726   3.140
  225SOL     OW  414   1.274   0.386   3.124
  225SOL    HW1  415   1.295   0.460   3.188
  225SOL    HW2  416   1.185   0.403   3.081
  226SOL     OW  417   0.367   1.100   2.363
  226SOL    HW1  418   0.360   1.183   2.307
  226SOL    HW2  419   0.371   1.020   2.303
  227SOL     OW  420   0.566   0.537   2.727
  227SOL    HW1  421   0.578   0.603   2.653
  227SOL    HW2  422   0.612   0.571   2.810
  228SOL     OW  423   0.354   1.510   3.191
  228SOL    HW1  424   0.333   1.466   3.104
  228SOL    HW2  425   0.451   1.536   3.194
  229SOL     OW  426   0.402   0.751   3.460
  229SOL    HW1  427   0.470   0.806   3.413
  229SOL    HW2  428   0.442   0.663   3.487
  230SOL     OW  429   1.587   0.779   3.532
  230SOL    HW1  430   1.495   0.817   3.527
  230SOL    HW2  431   1.647   0.826   3.467
  231SOL     OW  432   0.732   0.634   2.926
  231SOL    HW1  433   0.791   0.608   2.850
  231SOL    HW2  434   0.704   0.730   2.915
  232SOL     OW  435   1.728   0.935   3.716
  232SOL    HW1  436   1.682   0.928   3.627
  232SOL    HW2  437   1.666   0.979   3.782
  233SOL     OW  438   1.023   0.766   2.828
  233SOL    HW1  439   1.038   0.787   2.924
  233SOL    HW2  440   0.993   0.671   2.819
  234SOL     OW  441   1.859   1.518   3.467
  234SOL    HW1  442   1.873   1.545   3.372
  234SOL    HW2  443   1.942   1.540   3.520
  235SOL     OW  444   0.350   0.898   3.666
  235SOL    HW1  445   0.426   0.942   3.714
  235SOL    HW2  446   0.385   0.851   3.584
  236SOL     OW  447   1.068   1.333   2.711
  236SOL    HW1  448   1.075   1.249   2.656
  236SOL    HW2  449   1.130   1.402   2.675
  237SOL     OW  450   0.008   1.326   2.062
  237SOL    HW1  451  -0.085   1.347   2.031
  237SOL    HW2  452   0.018   1.227   2.075
  238SOL     OW  453   0.088   1.801   2.789
  238SOL    HW1  454   0.046   1.715   2.762
  238SOL    HW2  455   0.182   1.804   2.755
  239SOL     OW  456   0.504   1.568   2.772
  239SOL    HW1  457   0.570   1.642   2.781
  239SOL    HW2  458   0.548   1.489   2.730
  240SOL     OW  459   0.189   0.520   3.584
  240SOL    HW1  460   0.248   0.480   3.514
  240SOL    HW2  461   0.131   0.591   3.543
  241SOL     OW  462   0.815   0.572   2.187
  241SOL    HW1  463   0.822   0.483   2.141
  241SOL    HW2  464   0.721   0.606   2.179
  242SOL     OW  465   0.930   1.678   3.327
  242SOL    HW1  466   0.906   1.660   3.232
  242SOL    HW2  467   0.960   1.772   3.337
  243SOL     OW  468   1.347   1.059   3.096
  243SOL    HW1  469   1.371   0.996   3.022
  243SOL    HW2  470   1.257   1.099   3.078
  244SOL     OW  471   1.726   0.135   2.385
  244SOL    HW1  472   1.799   0.118   2.318
  244SOL    HW2  473   1.695   0.048   2.423
  245SOL     OW  474   0.672   1.616   2.016
  245SOL    HW1  475   0.681   1.626   1.917
  245SOL    HW2  476   0.632   1.527   2.037
  246SOL     OW  477   1.650   1.720   3.256
  246SOL    HW1  478   1.703   1.730   3.172
  246SOL    HW2  479   1.623   1.810   3.290
  247SOL     OW  480   0.822   1.002   3.234
  247SOL    HW1  481   0.862   1.001   3.142
  247SOL    HW2  482   0.832   1.094   3.274
  248SOL     OW  483   1.504   1.607   1.906
  248SOL    HW1  484   1.412   1.644   1.913
  248SOL    HW2  485   1.542   1.627   1.816
  249SOL     OW  486   0.372   1.288   3.352
  249SOL    HW1  487   0.359   1.381   3.318
  249SOL    HW2  488   0.288   1.236   3.339
  250SOL     OW  489   1.709   0.385   3.243
  250SOL    HW1  490   1.782   0.454   3.247
  250SOL    HW2  491   1.737   0.310   3.184
  251SOL     OW  492   0.613   0.842   3.293
  251SOL    HW1  493   0.669   0.923   3.276
  251SOL    HW2  494   0.672   0.762   3.296
  252SOL     OW  495   0.716   0.565   3.570
  252SOL    HW1  496   0.735   0.630   3.644
  252SOL    HW2  497   0.776   0.485   3.579
  253SOL     OW  498   1.674   0.883   3.116
  253SOL    HW1  499   1.647   0.794   3.079
  253SOL    HW2  500   1.675   0.951   3.043
  254SOL     OW  501   0.594   0.745   2.514
  254SOL    HW1  502   0.644   0.830   2.495
  254SOL    HW2  503   0.506   0.747   2.466
  255SOL     OW  504   0.661   1.790   2.815
  255SOL    HW1  505   0.615   1.878   2.802
  255SOL    HW2  506   0.760   1.802   2.808
  256SOL     OW  507   1.083   0.984   1.949
  256SOL    HW1  508   1.060   1.037   1.867
  256SOL    HW2  509   1.164   0.928   1.930
  257SOL     OW  510   0.079   1.240   2.515
  257SOL    HW1  511   0.078   1.193   2.603
  257SOL    HW2  512   0.161   1.212   2.464
  258SOL     OW  513   1.705   1.487   2.966
  258SOL    HW1  514   1.612   1.462   2.939
  258SOL    HW2  515   1.731   1.437   3.048
  259SOL     OW  516   0.812   1.586   2.549
  259SOL    HW1  517   0.844   1.596   2.455
  259SOL    HW2  518   0.733   1.524   2.551
  260SOL     OW  519   1.001   0.034   3.016
  260SOL    HW1  520   0.938  -0.038   2.985
  260SOL    HW2  521   1.094  -0.002   3.016
  261SOL     OW  522   0.618   1.567   3.146
  261SOL    HW1  523   0.613   1.649   3.203
  261SOL    HW2  524   0.707   1.564   3.101
  262SOL     OW  525   0.039   1.077   2.162
  262SOL    HW1  526   0.138   1.066   2.153
  262SOL    HW2  527  -0.001   0.991   2.194
  263SOL     OW  528   0.875   1.646   2.199
  263SOL    HW1  529   0.798   1.611   2.145
  263SOL    HW2  530   0.843   1.717   2.261
  264SOL     OW  531   0.606   0.964   3.847
  264SOL    HW1  532   0.613   1.048   3.793
  264SOL    HW2  533   0.652   0.977   3.935
  265SOL     OW  534   0.027   1.596   3.841
  265SOL    HW1  535   0.008   1.500   3.862
  265SOL    HW2  536  -0.006   1.654   3.916
  266SOL     OW  537   1.525   0.999   3.914
  266SOL    HW1  538   1.462   0.923   3.927
  266SOL    HW2  539   1.573   1.017   4.000
  267SOL     OW  540   1.111   1.776   3.961
  267SOL    HW1  541   1.051   1.714   4.011
  267SOL    HW2  542   1.142   1.732   3.876
  268SOL     OW  543   0.297   0.035   3.895
  268SOL    HW1  544   0.346   0.119   3.874
  268SOL    HW2  545   0.359  -0.030   3.940
  269SOL     OW  546   0.488   1.385   3.898
  269SOL    HW1  547   0.401   1.370   3.945
  269SOL    HW2  548   0.471   1.411   3.803
  270SOL     OW  549   1.540   0.274   3.849
  270SOL    HW1  550   1.479   0.199   3.872
  270SOL    HW2  551   1.562   0.326   3.932
  271SOL     OW  552   0.008   1.326   3.924
  271SOL    HW1  553  -0.085   1.347   3.893
  271SOL    HW2  554   0.018   1.227   3.937
  272SOL     OW  555   0.815   0.572   4.049
  272SOL    HW1  556   0.822   0.483   4.003
  272SOL    HW2  557   0.721   0.606   4.041
  273SOL     OW  558   0.473   0.500   3.915
  273SOL    HW1  559   0.534   0.580   3.919
  273SOL    HW2  560   0.378   0.531   3.922
  274SOL     OW  561   0.916   0.910   4.015
  274SOL    HW1  562   0.979   0.948   3.947
  274SOL    HW2  563   0.956   0.827   4.054
  275SOL     OW  564   0.255   1.348   4.014
  275SOL    HW1  565   0.159   1.349   3.987
  275SOL    HW2  566   0.267   1.401   4.098
  276SOL     OW  567   1.225   0.325   4.173
  276SOL    HW1  568   1.290   0.251   4.162
  276SOL    HW2  569   1.245   0.375   4.257
  277SOL     OW  570   1.083   0.984   3.811
  277SOL    HW1  571   1.060   1.037   3.729
  277SOL    HW2  572   1.164   0.928   3.792
  278SOL     OW  573   0.230   2.490   0.113
  278SOL    HW1  574   0.137   2.488   0.150
  278SOL    HW2  575   0.231   2.451   0.021
  279SOL     OW  576   0.019   2.230   0.647
  279SOL    HW1  577  -0.063   2.273   0.686
  279SOL    HW2  578  -0.009   2.157   0.584
  280SOL     OW  579   1.555   3.373   0.703
  280SOL    HW1  580   1.498   3.357   0.784
  280SOL    HW2  581   1.496   3.383   0.623
  281SOL     OW  582   0.768   3.006   1.023
  281SOL    HW1  583   0.690   3.023   1.083
  281SOL    HW2  584   0.802   3.093   0.987
  282SOL     OW  585   0.685   2.874   0.665
  282SOL    HW1  586   0.754   2.858   0.735
  282SOL    HW2  587   0.612   2.931   0.703
  283SOL     OW  588   0.438   2.254   1.499
  283SOL    HW1  589   0.520   2.198   1.508
  283SOL    HW2  590   0.357   2.196   1.503
  284SOL     OW  591   1.603   2.309   0.737
  284SOL    HW1  592   1.529   2.355   0.687
  284SOL    HW2  593   1.654   2.377   0.790
  285SOL     OW  594   0.231   3.575   0.483
  285SOL    HW1  595   0.265   3.652   0.537
  285SOL    HW2  596   0.275   3.575   0.393
  286SOL     OW  597   0.620   3.648   1.439
  286SOL    HW1  598   0.528   3.631   1.474
  286SOL    HW2  599   0.648   3.740   1.465
  287SOL     OW  600   0.606   2.826   0.123
  287SOL    HW1  601   0.613   2.910   0.069
  287SOL    HW2  602   0.652   2.839   0.211
  288SOL     OW  603   0.027   3.458   0.117
  288SOL    HW1  604   0.008   3.362   0.138
  288SOL    HW2  605  -0.006   3.516   0.192
  289SOL     OW  606   1.466   3.279   0.953
  289SOL    HW1  607   1.407   3.285   1.033
  289SOL    HW2  608   1.451   3.191   0.907
  290SOL     OW  609   0.598   2.591   0.270
  290SOL    HW1  610   0.622   2.660   0.202
  290SOL    HW2  611   0.520   2.624   0.324
  291SOL     OW  612   1.281   2.207   0.944
  291SOL    HW1  613   1.195   2.157   0.931
  291SOL    HW2  614   1.343   2.153   1.000
  292SOL     OW  615   1.394   2.331   1.674
  292SOL    HW1  616   1.374   2.374   1.762
  292SOL    HW2  617   1.472   2.269   1.683
  293SOL     OW  618   0.991   2.272   1.242
  293SOL    HW1  619   0.914   2.306   1.296
  293SOL    HW2  620   0.957   2.221   1.163
  294SOL     OW  621   0.076   2.673   0.789
  294SOL    HW1  622   0.175   2.661   0.798
  294SOL    HW2  623   0.052   2.768   0.810
  295SOL     OW  624   1.362   3.006   0.545
  295SOL    HW1  625   1.445   2.977   0.497
  295SOL    HW2  626   1.313   3.073   0.489
  296SOL     OW  627   0.550   2.058   0.885
  296SOL    HW1  628   0.545   2.053   0.985
  296SOL    HW2  629   0.552   2.154   0.856
  297SOL     OW  630   1.008   3.318   0.477
  297SOL    HW1  631   0.962   3.390   0.425
  297SOL    HW2  632   1.004   3.338   0.575
  298SOL     OW  633   1.795   2.928   0.873
  298SOL    HW1  634   1.733   2.913   0.797
  298SOL    HW2  635   1.743   2.939   0.958
  299SOL     OW  636   1.227   3.412   1.506
  299SOL    HW1  637   1.233   3.335   1.570
  299SOL    HW2  638   1.175   3.386   1.426
  300SOL     OW  639   1.458   2.597   0.728
  300SOL    HW1  640   1.453   2.532   0.803
  300SOL    HW2  641   1.538   2.656   0.741
  301SOL     OW  642   0.464   3.605   0.323
  301SOL    HW1  643   0.497   3.644   0.409
  301SOL    HW2  644   0.540   3.598   0.258
  302SOL     OW  645   1.400   1.969   0.426
  302SOL    HW1  646   1.376   1.932   0.336
  302SOL    HW2  647   1.499   1.985   0.430
  303SOL     OW  648   0.249   3.647   1.241
  303SOL    HW1  649   0.306   3.582   1.291
  303SOL    HW2  650   0.233   3.614   1.148
  304SOL     OW  651   0.940   3.560   0.904
  304SOL    HW1  652   1.020   3.503   0.925
  304SOL    HW2  653   0.891   3.520   0.827
  305SOL     OW  654   0.382   2.562   0.480
  305SOL    HW1  655   0.427   2.472   0.477
  305SOL    HW2  656   0.288   2.551   0.513
  306SOL     OW  657   0.614   1.984   0.117
  306SOL    HW1  658   0.712   1.962   0.124
  306SOL    HW2  659   0.583   1.967   0.024
  307SOL     OW  660   0.781   2.126   1.749
  307SOL    HW1  661   0.848   2.065   1.792
  307SOL    HW2  662   0.708   2.145   1.814
  308SOL     OW  663   0.803   3.264   0.924
  308SOL    HW1  664   0.893   3.278   0.882
  308SOL    HW2  665   0.732   3.266   0.853
  309SOL     OW  666   0.539   1.926   0.512
  309SOL    HW1  667   0.458   1.927   0.570
  309SOL    HW2  668   0.542   2.009   0.457
  310SOL     OW  669   0.935   2.098   0.480
  310SOL    HW1  670   0.887   2.139   0.402
  310SOL    HW2  671   1.034   2.096   0.461
  311SOL     OW  672   0.459   3.014   0.741
  311SOL    HW1  673   0.388   2.987   0.806
  311SOL    HW2  674   0.433   2.986   0.648
  312SOL     OW  675   1.017   1.901   0.753
  312SOL    HW1  676   0.945   1.906   0.684
  312SOL    HW2  677   0.993   1.832   0.822
  313SOL     OW  678   1.429   3.035   0.867
  313SOL    HW1  679   1.374   2.951   0.860
  313SOL    HW2  680   1.455   3.064   0.775
  314SOL     OW  681   1.466   2.452   0.992
  314SOL    HW1  682   1.436   2.357   0.999
  314SOL    HW2  683   1.539   2.468   1.058
  315SOL     OW  684   1.664   3.142   0.657
  315SOL    HW1  685   1.763   3.150   0.671
  315SOL    HW2  686   1.619   3.226   0.688
  316SOL     OW  687   1.390   2.437   0.078
  316SOL    HW1  688   1.336   2.416   0.159
  316SOL    HW2  689   1.481   2.396   0.087
  317SOL     OW  690   1.111   3.057   1.100
  317SOL    HW1  691   1.071   3.101   1.181
  317SOL    HW2  692   1.070   3.094   1.017
  318SOL     OW  693   1.638   2.961   1.079
  318SOL    HW1  694   1.643   3.042   1.138
  318SOL    HW2  695   1.552   2.963   1.028
  319SOL     OW  696   0.980   2.978   1.719
  319SOL    HW1  697   0.881   2.984   1.729
  319SOL    HW2  698   1.003   2.898   1.663
  320SOL     OW  699   0.705   2.912   0.368
  320SOL    HW1  700   0.691   2.919   0.467
  320SOL    HW2  701   0.789   2.861   0.350
  321SOL     OW  702   0.410   2.675   1.251
  321SOL    HW1  703   0.496   2.687   1.301
  321SOL    HW2  704   0.368   2.588   1.278
  322SOL     OW  705   0.367   2.962   0.501
  322SOL    HW1  706   0.360   3.045   0.445
  322SOL    HW2  707   0.371   2.882   0.441
  323SOL     OW  708   0.566   2.399   0.865
  323SOL    HW1  709   0.578   2.465   0.791
  323SOL    HW2  710   0.612   2.433   0.948
  324SOL     OW  711   1.252   3.210   0.388
  324SOL    HW1  712   1.302   3.287   0.428
  324SOL    HW2  713   1.157   3.212   0.420
  325SOL     OW  714   1.272   3.307   1.142
  325SOL    HW1  715   1.319   3.320   1.229
  325SOL    HW2  716   1.206   3.233   1.151
  326SOL     OW  717   1.582   2.501   0.472
  326SOL    HW1  718   1.551   2.562   0.545
  326SOL    HW2  719   1.632   2.553   0.403
  327SOL     OW  720   1.587   2.641   1.670
  327SOL    HW1  721   1.495   2.679   1.665
  327SOL    HW2  722   1.647   2.688   1.605
  328SOL     OW  723   1.013   1.967   1.770
  328SOL    HW1  724   1.019   2.052   1.718
  328SOL    HW2  725   1.045   1.891   1.713
  329SOL     OW  726   0.504   1.912   1.740
  329SOL    HW1  727   0.462   1.855   1.670
  329SOL    HW2  728   0.438   1.981   1.772
  330SOL     OW  729   0.573   2.732   1.029
  330SOL    HW1  730   0.617   2.821   1.020
  330SOL    HW2  731   0.510   2.732   1.106
  331SOL     OW  732   1.360   2.724   1.045
  331SOL    HW1  733   1.285   2.724   0.979
  331SOL    HW2  734   1.397   2.632   1.054
  332SOL     OW  735   1.728   2.797   1.854
  332SOL    HW1  736   1.682   2.790   1.765
  332SOL    HW2  737   1.666   2.841   1.920
  333SOL     OW  738   0.307   1.925   0.618
  333SOL    HW1  739   0.296   2.019   0.651
  333SOL    HW2  740   0.302   1.862   0.695
  334SOL     OW  741   1.023   2.628   0.966
  334SOL    HW1  742   1.038   2.649   1.062
  334SOL    HW2  743   0.993   2.533   0.957
  335SOL     OW  744   1.859   3.380   1.605
  335SOL    HW1  745   1.873   3.407   1.510
  335SOL    HW2  746   1.942   3.402   1.658
  336SOL     OW  747   0.350   2.760   1.804
  336SOL    HW1  748   0.426   2.804   1.852
  336SOL    HW2  749   0.385   2.713   1.722
  337SOL     OW  750   1.540   2.136   0.125
  337SOL    HW1  751   1.479   2.061   0.148
  337SOL    HW2  752   1.562   2.188   0.208
  338SOL     OW  753   1.303   2.700   0.042
  338SOL    HW1  754   1.337   2.607   0.057
  338SOL    HW2  755   1.321   2.727  -0.053
  339SOL     OW  756   1.068   3.195   0.849
  339SOL    HW1  757   1.075   3.111   0.794
  339SOL    HW2  758   1.130   3.264   0.813
  340SOL     OW  759   0.339   2.371   1.006
  340SOL    HW1  760   0.287   2.288   0.989
  340SOL    HW2  761   0.416   2.376   0.942
  341SOL     OW  762   0.504   3.430   0.910
  341SOL    HW1  763   0.570   3.504   0.919
  341SOL    HW2  764   0.548   3.351   0.868
  342SOL     OW  765   0.189   2.382   1.722
  342SOL    HW1  766   0.248   2.342   1.652
  342SOL    HW2  767   0.131   2.453   1.681
  343SOL     OW  768   0.671   2.326   1.269
  343SOL    HW1  769   0.637   2.237   1.239
  343SOL    HW2  770   0.697   2.380   1.189
  344SOL     OW  771   0.473   2.362   0.191
  344SOL    HW1  772   0.534   2.442   0.195
  344SOL    HW2  773   0.378   2.393   0.198
  345SOL     OW  774   0.159   2.999   1.466
  345SOL    HW1  775   0.181   2.938   1.542
  345SOL    HW2  776   0.169   2.950   1.380
  346SOL     OW  777   0.083   3.120   1.022
  346SOL    HW1  778   0.078   3.119   1.122
  346SOL    HW2  779   0.000   3.079   0.984
  347SOL     OW  780   1.726   1.997   0.523
  347SOL    HW1  781   1.799   1.980   0.456
  347SOL    HW2  782   1.695   1.910   0.561
  348SOL     OW  783   0.130   3.656   1.851
  348SOL    HW1  784   0.089   3.582   1.904
  348SOL    HW2  785   0.194   3.707   1.909
  349SOL     OW  786   1.650   3.582   1.394
  349SOL    HW1  787   1.703   3.592   1.310
  349SOL    HW2  788   1.623   3.672   1.428
  350SOL     OW  789   1.841   2.037   0.963
  350SOL    HW1  790   1.880   1.952   0.927
  350SOL    HW2  791   1.743   2.039   0.944
  351SOL     OW  792   1.194   3.474   0.031
  351SOL    HW1  793   1.200   3.381   0.068
  351SOL    HW2  794   1.135   3.474  -0.049
  352SOL     OW  795   0.822   2.864   1.372
  352SOL    HW1  796   0.862   2.863   1.280
  352SOL    HW2  797   0.832   2.956   1.412
  353SOL     OW  798   0.916   2.772   0.291
  353SOL    HW1  799   0.979   2.810   0.223
  353SOL    HW2  800   0.956   2.689   0.330
  354SOL     OW  801   1.504   3.469   0.044
  354SOL    HW1  802   1.412   3.506   0.051
  354SOL    HW2  803   1.542   3.489  -0.046
  355SOL     OW  804   0.372   3.150   1.490
  355SOL    HW1  805   0.359   3.243   1.456
  355SOL    HW2  806   0.288   3.098   1.477
  356SOL     OW  807   1.614   3.154   1.289
  356SOL    HW1  808   1.674   3.157   1.369
  356SOL    HW2  809   1.539   3.218   1.302
  357SOL     OW  810   1.039   2.960   0.696
  357SOL    HW1  811   0.969   2.913   0.750
  357SOL    HW2  812   1.098   2.892   0.653
  358SOL     OW  813   1.709   2.247   1.381
  358SOL    HW1  814   1.782   2.316   1.385
  358SOL    HW2  815   1.737   2.172   1.322
  359SOL     OW  816   0.255   3.210   0.290
  359SOL    HW1  817   0.159   3.211   0.263
  359SOL    HW2  818   0.267   3.263   0.374
  360SOL     OW  819   0.072   2.028   0.318
  360SOL    HW1  820   0.055   2.111   0.264
  360SOL    HW2  821   0.162   1.991   0.296
  361SOL     OW  822   1.183   3.197   0.119
  361SOL    HW1  823   1.084   3.186   0.121
  361SOL    HW2  824   1.217   3.212   0.212
  362SOL     OW  825   0.716   2.427   1.708
  362SOL    HW1  826   0.735   2.492   1.782
  362SOL    HW2  827   0.776   2.347   1.717
  363SOL     OW  828   0.594   2.607   0.652
  363SOL    HW1  829   0.644   2.692   0.633
  363SOL    HW2  830   0.506   2.609   0.604
  364SOL     OW  831   1.777   2.204   1.642
  364SOL    HW1  832   1.760   2.235   1.548
  364SOL    HW2  833   1.693   2.167   1.680
  365SOL     OW  834   0.859   2.818   0.861
  365SOL    HW1  835   0.913   2.749   0.909
  365SOL    HW2  836   0.827   2.887   0.927
  366SOL     OW  837   1.083   2.846   0.087
  366SOL    HW1  838   1.060   2.899   0.005
  366SOL    HW2  839   1.164   2.790   0.068
  367SOL     OW  840   0.221   3.176   1.844
  367SOL    HW1  841   0.156   3.103   1.823
  367SOL    HW2  842   0.225   3.190   1.942
  368SOL     OW  843   1.705   3.349   1.104
  368SOL    HW1  844   1.612   3.324   1.077
  368SOL    HW2  845   1.731   3.299   1.186
  369SOL     OW  846   0.317   2.409   1.280
  369SOL    HW1  847   0.355   2.350   1.352
  369SOL    HW2  848   0.357   2.383   1.192
  370SOL     OW  849   1.424   2.076   1.112
  370SOL    HW1  850   1.476   2.011   1.167
  370SOL    HW2  851   1.375   2.139   1.173
  371SOL     OW  852   1.001   1.896   1.154
  371SOL    HW1  853   0.938   1.824   1.123
  371SOL    HW2  854   1.094   1.860   1.154
  372SOL     OW  855   0.618   3.429   1.284
  372SOL    HW1  856   0.613   3.511   1.341
  372SOL    HW2  857   0.707   3.426   1.239
  373SOL     OW  858   1.300   2.315   0.691
  373SOL    HW1  859   1.241   2.395   0.695
  373SOL    HW2  860   1.315   2.280   0.784
  374SOL     OW  861   0.039   2.939   0.300
  374SOL    HW1  862   0.138   2.928   0.291
  374SOL    HW2  863  -0.001   2.853   0.332
  375SOL     OW  864   0.225   2.137   2.858
  375SOL    HW1  865   0.260   2.120   2.950
  375SOL    HW2  866   0.137   2.092   2.846
  376SOL     OW  867   0.019   2.230   2.509
  376SOL    HW1  868  -0.063   2.273   2.548
  376SOL    HW2  869  -0.009   2.157   2.446
  377SOL     OW  870   1.555   3.373   2.565
  377SOL    HW1  871   1.498   3.357   2.646
  377SOL    HW2  872   1.496   3.383   2.485
  378SOL     OW  873   1.755   2.469   2.093
  378SOL    HW1  874   1.743   2.456   1.994
  378SOL    HW2  875   1.725   2.388   2.142
  379SOL     OW  876   0.686   3.023   3.665
  379SOL    HW1  877   0.746   3.102   3.679
  379SOL    HW2  878   0.600   3.054   3.624
  380SOL     OW  879   0.438   2.254   3.361
  380SOL    HW1  880   0.520   2.198   3.370
  380SOL    HW2  881   0.357   2.196   3.365
  381SOL     OW  882   1.603   2.309   2.599
  381SOL    HW1  883   1.529   2.355   2.549
  381SOL    HW2  884   1.654   2.377   2.652
  382SOL     OW  885   0.231   3.575   2.345
  382SOL    HW1  886   0.265   3.652   2.399
  382SOL    HW2  887   0.275   3.575   2.255
  383SOL     OW  888   0.230   3.296   2.400
  383SOL    HW1  889   0.204   3.392   2.400
  383SOL    HW2  890   0.159   3.242   2.445
  384SOL     OW  891   0.240   2.953   2.748
  384SOL    HW1  892   0.254   2.869   2.800
  384SOL    HW2  893   0.185   3.017   2.803
  385SOL     OW  894   1.594   1.976   3.342
  385SOL    HW1  895   1.576   2.043   3.270
  385SOL    HW2  896   1.591   2.022   3.431
  386SOL     OW  897   1.842   3.629   2.221
  386SOL    HW1  898   1.896   3.600   2.301
  386SOL    HW2  899   1.872   3.719   2.192
  387SOL     OW  900   1.689   2.784   2.474
  387SOL    HW1  901   1.784   2.755   2.482
  387SOL    HW2  902   1.681   2.849   2.399
  388SOL     OW  903   0.809   1.866   2.364
  388SOL    HW1  904   0.849   1.957   2.355
  388SOL    HW2  905   0.709   1.874   2.370
  389SOL     OW  906   0.197   2.838   3.126
  389SOL    HW1  907   0.286   2.793   3.112
  389SOL    HW2  908   0.124   2.773   3.107
  390SOL     OW  909   1.187   3.654   3.478
  390SOL    HW1  910   1.211   3.714   3.402
  390SOL    HW2  911   1.194   3.559   3.448
  391SOL     OW  912   1.281   2.207   2.806
  391SOL    HW1  913   1.195   2.157   2.793
  391SOL    HW2  914   1.343   2.153   2.862
  392SOL     OW  915   1.576   3.524   2.169
  392SOL    HW1  916   1.665   3.570   2.172
  392SOL    HW2  917   1.555   3.500   2.074
  393SOL     OW  918   0.991   2.272   3.104
  393SOL    HW1  919   0.914   2.306   3.158
  393SOL    HW2  920   0.957   2.221   3.025
  394SOL     OW  921   1.041   2.563   2.291
  394SOL    HW1  922   1.067   2.559   2.387
  394SOL    HW2  923   0.956   2.512   2.277
  395SOL     OW  924   1.362   3.006   2.407
  395SOL    HW1  925   1.445   2.977   2.359
  395SOL    HW2  926   1.313   3.073   2.351
  396SOL     OW  927   0.351   3.663   2.715
  396SOL    HW1  928   0.401   3.577   2.721
  396SOL    HW2  929   0.416   3.740   2.712
  397SOL     OW  930   1.227   3.412   3.368
  397SOL    HW1  931   1.233   3.335   3.432
  397SOL    HW2  932   1.175   3.386   3.288
  398SOL     OW  933   0.321   2.805   2.104
  398SOL    HW1  934   0.403   2.844   2.062
  398SOL    HW2  935   0.294   2.723   2.055
  399SOL     OW  936   0.249   3.647   3.103
  399SOL    HW1  937   0.306   3.582   3.153
  399SOL    HW2  938   0.233   3.614   3.010
  400SOL     OW  939   0.940   3.560   2.766
  400SOL    HW1  940   1.020   3.503   2.787
  400SOL    HW2  941   0.891   3.520   2.689
  401SOL     OW  942   0.614   1.984   1.979
  401SOL    HW1  943   0.712   1.962   1.986
  401SOL    HW2  944   0.583   1.967   1.886
  402SOL     OW  945   0.888   3.376   3.057
  402SOL    HW1  946   0.865   3.351   2.963
  402SOL    HW2  947   0.949   3.307   3.096
  403SOL     OW  948   1.351   2.452   3.295
  403SOL    HW1  949   1.379   2.409   3.380
  403SOL    HW2  950   1.376   2.548   3.296
  404SOL     OW  951   0.922   2.365   2.761
  404SOL    HW1  952   0.897   2.356   2.665
  404SOL    HW2  953   0.970   2.283   2.792
  405SOL     OW  954   0.539   1.926   2.374
  405SOL    HW1  955   0.458   1.927   2.432
  405SOL    HW2  956   0.542   2.009   2.319
  406SOL     OW  957   1.434   3.050   1.903
  406SOL    HW1  958   1.466   2.974   1.960
  406SOL    HW2  959   1.342   3.077   1.933
  407SOL     OW  960   1.076   2.545   3.326
  407SOL    HW1  961   0.996   2.484   3.329
  407SOL    HW2  962   1.157   2.492   3.302
  408SOL     OW  963   1.032   2.411   1.878
  408SOL    HW1  964   0.991   2.493   1.839
  408SOL    HW2  965   1.096   2.437   1.951
  409SOL     OW  966   0.078   2.418   3.248
  409SOL    HW1  967   0.170   2.417   3.207
  409SOL    HW2  968   0.072   2.492   3.315
  410SOL     OW  969   1.017   1.901   2.615
  410SOL    HW1  970   0.945   1.906   2.546
  410SOL    HW2  971   0.993   1.832   2.684
  411SOL     OW  972   1.466   2.452   2.854
  411SOL    HW1  973   1.436   2.357   2.861
  411SOL    HW2  974   1.539   2.468   2.920
  412SOL     OW  975   0.488   3.247   2.036
  412SOL    HW1  976   0.401   3.232   2.083
  412SOL    HW2  977   0.471   3.273   1.941
  413SOL     OW  978   1.390   2.437   1.940
  413SOL    HW1  979   1.336   2.416   2.021
  413SOL    HW2  980   1.481   2.396   1.949
  414SOL     OW  981   0.527   2.118   2.190
  414SOL    HW1  982   0.554   2.059   2.115
  414SOL    HW2  983   0.527   2.213   2.159
  415SOL     OW  984   1.754   3.085   3.450
  415SOL    HW1  985   1.845   3.046   3.437
  415SOL    HW2  986   1.762   3.181   3.474
  416SOL     OW  987   1.592   3.491   3.487
  416SOL    HW1  988   1.619   3.525   3.397
  416SOL    HW2  989   1.671   3.453   3.533
  417SOL     OW  990   1.111   3.057   2.962
  417SOL    HW1  991   1.071   3.101   3.043
  417SOL    HW2  992   1.070   3.094   2.879
  418SOL     OW  993   0.705   2.912   2.230
  418SOL    HW1  994   0.691   2.919   2.329
  418SOL    HW2  995   0.789   2.861   2.212
  419SOL     OW  996   0.367   2.962   2.363
  419SOL    HW1  997   0.360   3.045   2.307
  419SOL    HW2  998   0.371   2.882   2.303
  420SOL     OW  999   1.272   3.307   3.004
  420SOL    HW1 1000   1.319   3.320   3.091
  420SOL    HW2 1001   1.206   3.233   3.013
  421SOL     OW 1002   1.582   2.501   2.334
  421SOL    HW1 1003   1.551   2.562   2.407
  421SOL    HW2 1004   1.632   2.553   2.265
  422SOL     OW 1005   0.354   3.372   3.191
  422SOL    HW1 1006   0.333   3.328   3.104
  422SOL    HW2 1007   0.451   3.398   3.194
  423SOL     OW 1008   1.013   1.967   3.632
  423SOL    HW1 1009   1.019   2.052   3.580
  423SOL    HW2 1010   1.045   1.891   3.575
  424SOL     OW 1011   1.209   2.387   2.137
  424SOL    HW1 1012   1.222   2.303   2.191
  424SOL    HW2 1013   1.180   2.461   2.197
  425SOL     OW 1014   0.307   2.075   3.093
  425SOL    HW1 1015   0.284   2.112   3.183
  425SOL    HW2 1016   0.277   1.980   3.087
  426SOL     OW 1017   0.037   3.172   3.144
  426SOL    HW1 1018   0.090   3.123   3.212
  426SOL    HW2 1019   0.059   3.270   3.149
  427SOL     OW 1020   0.307   1.925   2.480
  427SOL    HW1 1021   0.296   2.019   2.513
  427SOL    HW2 1022   0.302   1.862   2.557
  428SOL     OW 1023   1.622   2.229   2.236
  428SOL    HW1 1024   1.624   2.153   2.300
  428SOL    HW2 1025   1.574   2.306   2.276
  429SOL     OW 1026   1.023   2.628   2.828
  429SOL    HW1 1027   1.038   2.649   2.924
  429SOL    HW2 1028   0.993   2.533   2.819
  430SOL     OW 1029   1.859   3.380   3.467
  430SOL    HW1 1030   1.873   3.407   3.372
  430SOL    HW2 1031   1.942   3.402   3.520
  431SOL     OW 1032   0.350   2.760   3.666
  431SOL    HW1 1033   0.426   2.804   3.714
  431SOL    HW2 1034   0.385   2.713   3.584
  432SOL     OW 1035   1.540   2.136   1.987
  432SOL    HW1 1036   1.479   2.061   2.010
  432SOL    HW2 1037   1.562   2.188   2.070
  433SOL     OW 1038   0.339   2.371   2.868
  433SOL    HW1 1039   0.287   2.288   2.851
  433SOL    HW2 1040   0.416   2.376   2.804
  434SOL     OW 1041   1.160   2.069   3.339
  434SOL    HW1 1042   1.160   2.133   3.416
  434SOL    HW2 1043   1.188   2.117   3.256
  435SOL     OW 1044   0.008   3.188   2.062
  435SOL    HW1 1045  -0.085   3.209   2.031
  435SOL    HW2 1046   0.018   3.089   2.075
  436SOL     OW 1047   0.088   3.663   2.789
  436SOL    HW1 1048   0.046   3.577   2.762
  436SOL    HW2 1049   0.182   3.666   2.755
  437SOL     OW 1050   0.504   3.430   2.772
  437SOL    HW1 1051   0.570   3.504   2.781
  437SOL    HW2 1052   0.548   3.351   2.730
  438SOL     OW 1053   1.002   2.658   3.100
  438SOL    HW1 1054   1.043   2.626   3.186
  438SOL    HW2 1055   0.906   2.631   3.097
  439SOL     OW 1056   1.369   2.812   3.522
  439SOL    HW1 1057   1.408   2.901   3.542
  439SOL    HW2 1058   1.379   2.792   3.425
  440SOL     OW 1059   0.252   3.426   3.606
  440SOL    HW1 1060   0.222   3.483   3.682
  440SOL    HW2 1061   0.245   3.329   3.632
  441SOL     OW 1062   0.473   2.362   2.053
  441SOL    HW1 1063   0.534   2.442   2.057
  441SOL    HW2 1064   0.378   2.393   2.060
  442SOL     OW 1065   1.347   2.921   3.096
  442SOL    HW1 1066   1.371   2.858   3.022
  442SOL    HW2 1067   1.257   2.961   3.078
  443SOL     OW 1068   1.759   3.609   3.016
  443SOL    HW1 1069   1.820   3.639   2.943
  443SOL    HW2 1070   1.721   3.520   2.994
  444SOL     OW 1071   1.388   3.435   2.339
  444SOL    HW1 1072   1.455   3.447   2.265
  444SOL    HW2 1073   1.348   3.524   2.362
  445SOL     OW 1074   0.130   3.656   3.713
  445SOL    HW1 1075   0.089   3.582   3.766
  445SOL    HW2 1076   0.194   3.707   3.771
  446SOL     OW 1077   1.280   2.789   2.534
  446SOL    HW1 1078   1.340   2.708   2.536
  446SOL    HW2 1079   1.320   2.858   2.474
  447SOL     OW 1080   0.830   3.135   3.284
  447SOL    HW1 1081   0.825   3.168   3.379
  447SOL    HW2 1082   0.744   3.154   3.238
  448SOL     OW 1083   0.263   2.188   2.582
  448SOL    HW1 1084   0.184   2.239   2.548
  448SOL    HW2 1085   0.254   2.173   2.680
  449SOL     OW 1086   1.194   3.474   1.893
  449SOL    HW1 1087   1.200   3.381   1.930
  449SOL    HW2 1088   1.135   3.474   1.813
  450SOL     OW 1089   0.916   2.772   2.153
  450SOL    HW1 1090   0.979   2.810   2.085
  450SOL    HW2 1091   0.956   2.689   2.192
  451SOL     OW 1092   1.039   2.960   2.558
  451SOL    HW1 1093   0.969   2.913   2.612
  451SOL    HW2 1094   1.098   2.892   2.515
  452SOL     OW 1095   0.590   3.349   2.353
  452SOL    HW1 1096   0.632   3.291   2.283
  452SOL    HW2 1097   0.546   3.428   2.309
  453SOL     OW 1098   1.709   2.247   3.243
  453SOL    HW1 1099   1.782   2.316   3.247
  453SOL    HW2 1100   1.737   2.172   3.184
  454SOL     OW 1101   0.105   2.875   3.588
  454SOL    HW1 1102   0.028   2.842   3.642
  454SOL    HW2 1103   0.190   2.845   3.630
  455SOL     OW 1104   0.075   2.207   1.895
  455SOL    HW1 1105  -0.017   2.179   1.866
  455SOL    HW2 1106   0.106   2.284   1.839
  456SOL     OW 1107   1.440   2.718   3.260
  456SOL    HW1 1108   1.383   2.770   3.197
  456SOL    HW2 1109   1.536   2.730   3.236
  457SOL     OW 1110   0.072   2.028   2.180
  457SOL    HW1 1111   0.055   2.111   2.126
  457SOL    HW2 1112   0.162   1.991   2.158
  458SOL     OW 1113   1.493   3.629   2.821
  458SOL    HW1 1114   1.526   3.693   2.752
  458SOL    HW2 1115   1.559   3.623   2.896
  459SOL     OW 1116   1.450   3.082   3.495
  459SOL    HW1 1117   1.441   3.072   3.594
  459SOL    HW2 1118   1.546   3.075   3.469
  460SOL     OW 1119   1.225   2.187   2.311
  460SOL    HW1 1120   1.290   2.113   2.300
  460SOL    HW2 1121   1.245   2.237   2.395
  461SOL     OW 1122   1.730   2.796   3.379
  461SOL    HW1 1123   1.768   2.887   3.394
  461SOL    HW2 1124   1.722   2.779   3.280
  462SOL     OW 1125   0.859   3.236   1.878
  462SOL    HW1 1126   0.813   3.251   1.966
  462SOL    HW2 1127   0.903   3.321   1.848
  463SOL     OW 1128   0.661   3.652   2.815
  463SOL    HW1 1129   0.615   3.740   2.802
  463SOL    HW2 1130   0.760   3.664   2.808
  464SOL     OW 1131   0.859   2.818   2.723
  464SOL    HW1 1132   0.913   2.749   2.771
  464SOL    HW2 1133   0.827   2.887   2.789
  465SOL     OW 1134   1.705   3.349   2.966
  465SOL    HW1 1135   1.612   3.324   2.939
  465SOL    HW2 1136   1.731   3.299   3.048
  466SOL     OW 1137   0.230   2.490   3.837
  466SOL    HW1 1138   0.137   2.488   3.874
  466SOL    HW2 1139   0.231   2.451   3.745
  467SOL     OW 1140   0.606   2.826   3.847
  467SOL    HW1 1141   0.613   2.910   3.793
  467SOL    HW2 1142   0.652   2.839   3.935
  468SOL     OW 1143   0.865   2.210   3.919
  468SOL    HW1 1144   0.924   2.273   3.870
  468SOL    HW2 1145   0.884   2.116   3.890
  469SOL     OW 1146   0.321   2.805   3.966
  469SOL    HW1 1147   0.403   2.844   3.924
  469SOL    HW2 1148   0.294   2.723   3.917
  470SOL     OW 1149   1.111   3.638   3.961
  470SOL    HW1 1150   1.051   3.576   4.011
  470SOL    HW2 1151   1.142   3.594   3.876
  471SOL     OW 1152   0.488   3.247   3.898
  471SOL    HW1 1153   0.401   3.232   3.945
  471SOL    HW2 1154   0.471   3.273   3.803
  472SOL     OW 1155   1.390   2.437   3.802
  472SOL    HW1 1156   1.336   2.416   3.883
  472SOL    HW2 1157   1.481   2.396   3.811
  473SOL     OW 1158   0.527   2.118   4.052
  473SOL    HW1 1159   0.554   2.059   3.977
  473SOL    HW2 1160   0.527   2.213   4.021
  474SOL     OW 1161   0.307   1.925   4.342
  474SOL    HW1 1162   0.296   2.019   4.375
  474SOL    HW2 1163   0.302   1.862   4.419
  475SOL     OW 1164   1.303   2.700   3.766
  475SOL    HW1 1165   1.337   2.607   3.781
  475SOL    HW2 1166   1.321   2.727   3.671
  476SOL     OW 1167   1.194   3.474   3.755
  476SOL    HW1 1168   1.200   3.381   3.792
  476SOL    HW2 1169   1.135   3.474   3.675
  477SOL     OW 1170   1.504   3.469   3.768
  477SOL    HW1 1171   1.412   3.506   3.775
  477SOL    HW2 1172   1.542   3.489   3.678
  478SOL     OW 1173   1.183   3.197   3.843
  478SOL    HW1 1174   1.084   3.186   3.845
  478SOL    HW2 1175   1.217   3.212   3.936
  479SOL     OW 1176   1.352   1.914   3.892
  479SOL    HW1 1177   1.387   1.873   3.808
  479SOL    HW2 1178   1.262   1.876   3.912
  480SOL     OW 1179   0.230   4.352   0.113
  480SOL    HW1 1180   0.137   4.350   0.150
  480SOL    HW2 1181   0.231   4.313   0.021
  481SOL     OW 1182   0.225   3.999   0.996
  481SOL    HW1 1183   0.260   3.982   1.088
  481SOL    HW2 1184   0.137   3.954   0.984
  482SOL     OW 1185   0.019   4.092   0.647
  482SOL    HW1 1186  -0.063   4.135   0.686
  482SOL    HW2 1187  -0.009   4.019   0.584
  483SOL     OW 1188   0.317   3.975   1.801
  483SOL    HW1 1189   0.388   4.046   1.807
  483SOL    HW2 1190   0.229   4.014   1.829
  484SOL     OW 1191   1.281   4.069   0.944
  484SOL    HW1 1192   1.195   4.019   0.931
  484SOL    HW2 1193   1.343   4.015   1.000
  485SOL     OW 1194   1.400   3.831   0.426
  485SOL    HW1 1195   1.376   3.794   0.336
  485SOL    HW2 1196   1.499   3.847   0.430
  486SOL     OW 1197   1.547   3.946   1.729
  486SOL    HW1 1198   1.542   3.983   1.821
  486SOL    HW2 1199   1.475   3.877   1.717
  487SOL     OW 1200   0.614   3.846   0.117
  487SOL    HW1 1201   0.712   3.824   0.124
  487SOL    HW2 1202   0.583   3.829   0.024
  488SOL     OW 1203   0.781   3.988   1.749
  488SOL    HW1 1204   0.848   3.927   1.792
  488SOL    HW2 1205   0.708   4.007   1.814
  489SOL     OW 1206   0.539   3.788   0.512
  489SOL    HW1 1207   0.458   3.789   0.570
  489SOL    HW2 1208   0.542   3.871   0.457
  490SOL     OW 1209   0.935   3.960   0.480
  490SOL    HW1 1210   0.887   4.001   0.402
  490SOL    HW2 1211   1.034   3.958   0.461
  491SOL     OW 1212   0.561   3.946   1.147
  491SOL    HW1 1213   0.599   3.862   1.184
  491SOL    HW2 1214   0.473   3.965   1.191
  492SOL     OW 1215   0.504   3.774   1.740
  492SOL    HW1 1216   0.462   3.717   1.670
  492SOL    HW2 1217   0.438   3.843   1.772
  493SOL     OW 1218   0.339   4.233   1.006
  493SOL    HW1 1219   0.287   4.150   0.989
  493SOL    HW2 1220   0.416   4.238   0.942
  494SOL     OW 1221   1.160   3.931   1.477
  494SOL    HW1 1222   1.160   3.995   1.554
  494SOL    HW2 1223   1.188   3.979   1.394
  495SOL     OW 1224   0.903   3.810   0.133
  495SOL    HW1 1225   0.954   3.811   0.047
  495SOL    HW2 1226   0.959   3.768   0.204
  496SOL     OW 1227   0.672   3.927   1.489
  496SOL    HW1 1228   0.762   3.911   1.449
  496SOL    HW2 1229   0.680   3.932   1.588
  497SOL     OW 1230   1.424   3.938   1.112
  497SOL    HW1 1231   1.476   3.873   1.167
  497SOL    HW2 1232   1.375   4.001   1.173
  498SOL     OW 1233   1.001   3.758   1.154
  498SOL    HW1 1234   0.938   3.686   1.123
  498SOL    HW2 1235   1.094   3.722   1.154
  499SOL     OW 1236   1.352   3.776   0.168
  499SOL    HW1 1237   1.387   3.735   0.084
  499SOL    HW2 1238   1.262   3.738   0.188
  500SOL     OW 1239   1.300   4.177   0.691
  500SOL    HW1 1240   1.241   4.257   0.695
  500SOL    HW2 1241   1.315   4.142   0.784
  501SOL     OW 1242   0.019   4.092   2.509
  501SOL    HW1 1243  -0.063   4.135   2.548
  501SOL    HW2 1244  -0.009   4.019   2.446
  502SOL     OW 1245   1.755   4.331   2.093
  502SOL    HW1 1246   1.743   4.318   1.994
  502SOL    HW2 1247   1.725   4.250   2.142
  503SOL     OW 1248   1.594   3.838   3.342
  503SOL    HW1 1249   1.576   3.905   3.270
  503SOL    HW2 1250   1.591   3.884   3.431
  504SOL     OW 1251   0.809   3.728   2.364
  504SOL    HW1 1252   0.849   3.819   2.355
  504SOL    HW2 1253   0.709   3.736   2.370
  505SOL     OW 1254   0.317   3.975   3.663
  505SOL    HW1 1255   0.388   4.046   3.669
  505SOL    HW2 1256   0.229   4.014   3.691
  506SOL     OW 1257   0.550   3.920   2.747
  506SOL    HW1 1258   0.545   3.915   2.847
  506SOL    HW2 1259   0.552   4.016   2.718
  507SOL     OW 1260   1.400   3.831   2.288
  507SOL    HW1 1261   1.376   3.794   2.198
  507SOL    HW2 1262   1.499   3.847   2.292
  508SOL     OW 1263   0.297   3.759   2.033
  508SOL    HW1 1264   0.346   3.843   2.012
  508SOL    HW2 1265   0.359   3.694   2.078
  509SOL     OW 1266   1.017   3.763   2.615
  509SOL    HW1 1267   0.945   3.768   2.546
  509SOL    HW2 1268   0.993   3.694   2.684
  510SOL     OW 1269   0.527   3.980   2.190
  510SOL    HW1 1270   0.554   3.921   2.115
  510SOL    HW2 1271   0.527   4.075   2.159
  511SOL     OW 1272   1.013   3.829   3.632
  511SOL    HW1 1273   1.019   3.914   3.580
  511SOL    HW2 1274   1.045   3.753   3.575
  512SOL     OW 1275   0.307   3.937   3.093
  512SOL    HW1 1276   0.284   3.974   3.183
  512SOL    HW2 1277   0.277   3.842   3.087
  513SOL     OW 1278   0.307   3.787   2.480
  513SOL    HW1 1279   0.296   3.881   2.513
  513SOL    HW2 1280   0.302   3.724   2.557
  514SOL     OW 1281   1.160   3.931   3.339
  514SOL    HW1 1282   1.160   3.995   3.416
  514SOL    HW2 1283   1.188   3.979   3.256
  515SOL     OW 1284   1.593   3.945   2.744
  515SOL    HW1 1285   1.509   3.944   2.798
  515SOL    HW2 1286   1.595   4.028   2.688
  516SOL     OW 1287   1.755   4.331   3.955
  516SOL    HW1 1288   1.743   4.318   3.856
  516SOL    HW2 1289   1.725   4.250   4.004
  517SOL     OW 1290   0.614   3.846   3.841
  517SOL    HW1 1291   0.712   3.824   3.848
  517SOL    HW2 1292   0.583   3.829   3.748
  518SOL     OW 1293   0.297   3.759   3.895
  518SOL    HW1 1294   0.346   3.843   3.874
  518SOL    HW2 1295   0.359   3.694   3.940
  519SOL     OW 1296   1.540   3.998   3.849
  519SOL    HW1 1297   1.479   3.923   3.872
  519SOL    HW2 1298   1.562   4.050   3.932
  520SOL     OW 1299   0.815   4.296   4.049
  520SOL    HW1 1300   0.822   4.207   4.003
  520SOL    HW2 1301   0.721   4.330   4.041
  521SOL     OW 1302   0.075   4.069   3.757
  521SOL    HW1 1303  -0.017   4.041   3.728
  521SOL    HW2 1304   0.106   4.146   3.701
  522SOL     OW 1305   0.072   3.890   4.042
  522SOL    HW1 1306   0.055   3.973   3.988
  522SOL    HW2 1307   0.162   3.853   4.020
  523SOL     OW 1308   2.092   0.628   0.113
  523SOL    HW1 1309   1.999   0.626   0.150
  523SOL    HW2 1310   2.093   0.589   0.021
  524SOL     OW 1311   2.087   0.275   0.996
  524SOL    HW1 1312   2.122   0.258   1.088
  524SOL    HW2 1313   1.999   0.230   0.984
  525SOL     OW 1314   1.881   0.368   0.647
  525SOL    HW1 1315   1.799   0.411   0.686
  525SOL    HW2 1316   1.853   0.295   0.584
  526SOL     OW 1317   2.431   1.275   1.165
  526SOL    HW1 1318   2.338   1.268   1.128
  526SOL    HW2 1319   2.442   1.364   1.209
  527SOL     OW 1320   3.417   1.511   0.703
  527SOL    HW1 1321   3.360   1.495   0.784
  527SOL    HW2 1322   3.358   1.521   0.623
  528SOL     OW 1323   2.997   0.703   0.717
  528SOL    HW1 1324   3.054   0.781   0.692
  528SOL    HW2 1325   2.937   0.729   0.793
  529SOL     OW 1326   2.548   1.161   1.803
  529SOL    HW1 1327   2.608   1.240   1.817
  529SOL    HW2 1328   2.462   1.192   1.762
  530SOL     OW 1329   2.197   1.435   1.061
  530SOL    HW1 1330   2.119   1.404   1.008
  530SOL    HW2 1331   2.255   1.493   1.004
  531SOL     OW 1332   2.300   0.392   1.499
  531SOL    HW1 1333   2.382   0.336   1.508
  531SOL    HW2 1334   2.219   0.334   1.503
  532SOL     OW 1335   2.093   1.713   0.483
  532SOL    HW1 1336   2.127   1.790   0.537
  532SOL    HW2 1337   2.137   1.713   0.393
  533SOL     OW 1338   2.092   1.434   0.538
  533SOL    HW1 1339   2.066   1.530   0.538
  533SOL    HW2 1340   2.021   1.380   0.583
  534SOL     OW 1341   2.102   1.091   0.886
  534SOL    HW1 1342   2.116   1.007   0.938
  534SOL    HW2 1343   2.047   1.155   0.941
  535SOL     OW 1344   2.482   1.786   1.439
  535SOL    HW1 1345   2.390   1.769   1.474
  535SOL    HW2 1346   2.510   1.878   1.465
  536SOL     OW 1347   2.468   0.964   0.123
  536SOL    HW1 1348   2.475   1.048   0.069
  536SOL    HW2 1349   2.514   0.977   0.211
  537SOL     OW 1350   3.704   1.767   0.359
  537SOL    HW1 1351   3.758   1.738   0.439
  537SOL    HW2 1352   3.734   1.857   0.330
  538SOL     OW 1353   1.889   1.596   0.117
  538SOL    HW1 1354   1.870   1.500   0.138
  538SOL    HW2 1355   1.856   1.654   0.192
  539SOL     OW 1356   3.503   1.108   0.432
  539SOL    HW1 1357   3.589   1.110   0.380
  539SOL    HW2 1358   3.517   1.155   0.520
  540SOL     OW 1359   1.975   0.737   1.597
  540SOL    HW1 1360   2.063   0.724   1.642
  540SOL    HW2 1361   1.962   0.834   1.575
  541SOL     OW 1362   2.475   1.365   0.726
  541SOL    HW1 1363   2.426   1.278   0.735
  541SOL    HW2 1364   2.452   1.408   0.639
  542SOL     OW 1365   3.155   1.228   1.423
  542SOL    HW1 1366   3.192   1.155   1.365
  542SOL    HW2 1367   3.207   1.233   1.508
  543SOL     OW 1368   2.671   0.004   0.502
  543SOL    HW1 1369   2.711   0.095   0.493
  543SOL    HW2 1370   2.571   0.012   0.508
  544SOL     OW 1371   2.179   0.251   1.801
  544SOL    HW1 1372   2.250   0.322   1.807
  544SOL    HW2 1373   2.091   0.290   1.829
  545SOL     OW 1374   3.438   1.662   0.307
  545SOL    HW1 1375   3.527   1.708   0.310
  545SOL    HW2 1376   3.417   1.638   0.212
  546SOL     OW 1377   3.581   0.585   1.831
  546SOL    HW1 1378   3.555   0.674   1.795
  546SOL    HW2 1379   3.579   0.517   1.758
  547SOL     OW 1380   3.224   1.144   0.545
  547SOL    HW1 1381   3.307   1.115   0.497
  547SOL    HW2 1382   3.175   1.211   0.489
  548SOL     OW 1383   2.412   0.196   0.885
  548SOL    HW1 1384   2.407   0.191   0.985
  548SOL    HW2 1385   2.414   0.292   0.856
  549SOL     OW 1386   2.213   1.801   0.853
  549SOL    HW1 1387   2.263   1.715   0.859
  549SOL    HW2 1388   2.278   1.878   0.850
  550SOL     OW 1389   3.089   1.550   1.506
  550SOL    HW1 1390   3.095   1.473   1.570
  550SOL    HW2 1391   3.037   1.524   1.426
  551SOL     OW 1392   2.323   1.266   1.727
  551SOL    HW1 1393   2.273   1.267   1.641
  551SOL    HW2 1394   2.260   1.248   1.803
  552SOL     OW 1395   2.111   1.785   1.241
  552SOL    HW1 1396   2.168   1.720   1.291
  552SOL    HW2 1397   2.095   1.752   1.148
  553SOL     OW 1398   2.802   1.698   0.904
  553SOL    HW1 1399   2.882   1.641   0.925
  553SOL    HW2 1400   2.753   1.658   0.827
  554SOL     OW 1401   2.244   0.700   0.480
  554SOL    HW1 1402   2.289   0.610   0.477
  554SOL    HW2 1403   2.150   0.689   0.513
  555SOL     OW 1404   2.476   0.122   0.117
  555SOL    HW1 1405   2.574   0.100   0.124
  555SOL    HW2 1406   2.445   0.105   0.024
  556SOL     OW 1407   2.643   0.264   1.749
  556SOL    HW1 1408   2.710   0.203   1.792
  556SOL    HW2 1409   2.570   0.283   1.814
  557SOL     OW 1410   3.213   0.590   1.433
  557SOL    HW1 1411   3.241   0.547   1.518
  557SOL    HW2 1412   3.238   0.686   1.434
  558SOL     OW 1413   2.665   1.402   0.924
  558SOL    HW1 1414   2.755   1.416   0.882
  558SOL    HW2 1415   2.594   1.404   0.853
  559SOL     OW 1416   2.159   0.035   0.171
  559SOL    HW1 1417   2.208   0.119   0.150
  559SOL    HW2 1418   2.221  -0.030   0.216
  560SOL     OW 1419   2.797   0.236   0.480
  560SOL    HW1 1420   2.749   0.277   0.402
  560SOL    HW2 1421   2.896   0.234   0.461
  561SOL     OW 1422   2.938   0.683   1.464
  561SOL    HW1 1423   2.858   0.622   1.467
  561SOL    HW2 1424   3.019   0.630   1.440
  562SOL     OW 1425   3.089   1.570   0.793
  562SOL    HW1 1426   3.110   1.644   0.728
  562SOL    HW2 1427   3.157   1.570   0.866
  563SOL     OW 1428   2.321   1.152   0.741
  563SOL    HW1 1429   2.250   1.125   0.806
  563SOL    HW2 1430   2.295   1.124   0.648
  564SOL     OW 1431   2.894   0.549   0.016
  564SOL    HW1 1432   2.853   0.631  -0.023
  564SOL    HW2 1433   2.958   0.575   0.089
  565SOL     OW 1434   1.940   0.556   1.386
  565SOL    HW1 1435   2.032   0.555   1.345
  565SOL    HW2 1436   1.934   0.630   1.453
  566SOL     OW 1437   2.728   0.454   0.642
  566SOL    HW1 1438   2.696   0.526   0.580
  566SOL    HW2 1439   2.752   0.373   0.589
  567SOL     OW 1440   3.328   0.590   0.992
  567SOL    HW1 1441   3.298   0.495   0.999
  567SOL    HW2 1442   3.401   0.606   1.058
  568SOL     OW 1443   3.526   1.280   0.657
  568SOL    HW1 1444   3.625   1.288   0.671
  568SOL    HW2 1445   3.481   1.364   0.688
  569SOL     OW 1446   2.973   1.195   1.100
  569SOL    HW1 1447   2.933   1.239   1.181
  569SOL    HW2 1448   2.932   1.232   1.017
  570SOL     OW 1449   3.500   1.099   1.079
  570SOL    HW1 1450   3.505   1.180   1.138
  570SOL    HW2 1451   3.414   1.101   1.028
  571SOL     OW 1452   2.567   1.050   0.368
  571SOL    HW1 1453   2.553   1.057   0.467
  571SOL    HW2 1454   2.651   0.999   0.350
  572SOL     OW 1455   1.926   1.564   1.331
  572SOL    HW1 1456   1.880   1.646   1.297
  572SOL    HW2 1457   2.024   1.583   1.340
  573SOL     OW 1458   2.428   0.537   0.865
  573SOL    HW1 1459   2.440   0.603   0.791
  573SOL    HW2 1460   2.474   0.571   0.948
  574SOL     OW 1461   3.444   0.639   0.472
  574SOL    HW1 1462   3.413   0.700   0.545
  574SOL    HW2 1463   3.494   0.691   0.403
  575SOL     OW 1464   2.216   1.510   1.329
  575SOL    HW1 1465   2.195   1.466   1.242
  575SOL    HW2 1466   2.313   1.536   1.332
  576SOL     OW 1467   2.366   0.050   1.740
  576SOL    HW1 1468   2.324  -0.007   1.670
  576SOL    HW2 1469   2.300   0.119   1.772
  577SOL     OW 1470   2.435   0.870   1.029
  577SOL    HW1 1471   2.479   0.959   1.020
  577SOL    HW2 1472   2.372   0.870   1.106
  578SOL     OW 1473   2.169   0.213   1.231
  578SOL    HW1 1474   2.146   0.250   1.321
  578SOL    HW2 1475   2.139   0.118   1.225
  579SOL     OW 1476   1.899   1.310   1.282
  579SOL    HW1 1477   1.952   1.261   1.350
  579SOL    HW2 1478   1.921   1.408   1.287
  580SOL     OW 1479   3.484   0.367   0.374
  580SOL    HW1 1480   3.486   0.291   0.438
  580SOL    HW2 1481   3.436   0.444   0.414
  581SOL     OW 1482   3.165   0.838   0.042
  581SOL    HW1 1483   3.199   0.745   0.057
  581SOL    HW2 1484   3.183   0.865  -0.053
  582SOL     OW 1485   2.930   1.333   0.849
  582SOL    HW1 1486   2.937   1.249   0.794
  582SOL    HW2 1487   2.992   1.402   0.813
  583SOL     OW 1488   2.181   0.810   0.949
  583SOL    HW1 1489   2.274   0.846   0.954
  583SOL    HW2 1490   2.175   0.725   1.001
  584SOL     OW 1491   2.201   0.509   1.006
  584SOL    HW1 1492   2.149   0.426   0.989
  584SOL    HW2 1493   2.278   0.514   0.942
  585SOL     OW 1494   1.950   1.801   0.927
  585SOL    HW1 1495   1.908   1.715   0.900
  585SOL    HW2 1496   2.044   1.804   0.893
  586SOL     OW 1497   2.366   1.568   0.910
  586SOL    HW1 1498   2.432   1.642   0.919
  586SOL    HW2 1499   2.410   1.489   0.868
  587SOL     OW 1500   3.231   0.950   1.660
  587SOL    HW1 1501   3.270   1.039   1.680
  587SOL    HW2 1502   3.241   0.930   1.563
  588SOL     OW 1503   2.792   1.678   1.465
  588SOL    HW1 1504   2.768   1.660   1.370
  588SOL    HW2 1505   2.822   1.772   1.475
  589SOL     OW 1506   2.021   1.137   1.466
  589SOL    HW1 1507   2.043   1.076   1.542
  589SOL    HW2 1508   2.031   1.088   1.380
  590SOL     OW 1509   3.209   1.059   1.234
  590SOL    HW1 1510   3.233   0.996   1.160
  590SOL    HW2 1511   3.119   1.099   1.216
  591SOL     OW 1512   1.945   1.258   1.022
  591SOL    HW1 1513   1.940   1.257   1.122
  591SOL    HW2 1514   1.862   1.217   0.984
  592SOL     OW 1515   3.588   0.135   0.523
  592SOL    HW1 1516   3.661   0.118   0.456
  592SOL    HW2 1517   3.557   0.048   0.561
  593SOL     OW 1518   3.250   1.573   0.477
  593SOL    HW1 1519   3.317   1.585   0.403
  593SOL    HW2 1520   3.210   1.662   0.500
  594SOL     OW 1521   1.992   1.794   1.851
  594SOL    HW1 1522   1.951   1.720   1.904
  594SOL    HW2 1523   2.056   1.845   1.909
  595SOL     OW 1524   2.534   1.616   0.154
  595SOL    HW1 1525   2.543   1.626   0.055
  595SOL    HW2 1526   2.494   1.527   0.175
  596SOL     OW 1527   3.512   1.720   1.394
  596SOL    HW1 1528   3.565   1.730   1.310
  596SOL    HW2 1529   3.485   1.810   1.428
  597SOL     OW 1530   3.703   0.175   0.963
  597SOL    HW1 1531   3.742   0.090   0.927
  597SOL    HW2 1532   3.605   0.177   0.944
  598SOL     OW 1533   2.125   0.326   0.720
  598SOL    HW1 1534   2.046   0.377   0.686
  598SOL    HW2 1535   2.116   0.311   0.818
  599SOL     OW 1536   2.684   1.002   1.372
  599SOL    HW1 1537   2.724   1.001   1.280
  599SOL    HW2 1538   2.694   1.094   1.412
  600SOL     OW 1539   2.778   0.910   0.291
  600SOL    HW1 1540   2.841   0.948   0.223
  600SOL    HW2 1541   2.818   0.827   0.330
  601SOL     OW 1542   3.366   1.607   0.044
  601SOL    HW1 1543   3.274   1.644   0.051
  601SOL    HW2 1544   3.404   1.627  -0.046
  602SOL     OW 1545   2.234   1.288   1.490
  602SOL    HW1 1546   2.221   1.381   1.456
  602SOL    HW2 1547   2.150   1.236   1.477
  603SOL     OW 1548   3.476   1.292   1.289
  603SOL    HW1 1549   3.536   1.295   1.369
  603SOL    HW2 1550   3.401   1.356   1.302
  604SOL     OW 1551   2.901   1.098   0.696
  604SOL    HW1 1552   2.831   1.051   0.750
  604SOL    HW2 1553   2.960   1.030   0.653
  605SOL     OW 1554   2.876   0.236   0.971
  605SOL    HW1 1555   2.868   0.200   0.878
  605SOL    HW2 1556   2.874   0.160   1.036
  606SOL     OW 1557   3.571   0.385   1.381
  606SOL    HW1 1558   3.644   0.454   1.385
  606SOL    HW2 1559   3.599   0.310   1.322
  607SOL     OW 1560   2.534   0.203   1.489
  607SOL    HW1 1561   2.624   0.187   1.449
  607SOL    HW2 1562   2.542   0.208   1.588
  608SOL     OW 1563   1.937   0.345   0.033
  608SOL    HW1 1564   1.845   0.317   0.004
  608SOL    HW2 1565   1.968   0.422  -0.023
  609SOL     OW 1566   1.934   0.166   0.318
  609SOL    HW1 1567   1.917   0.249   0.264
  609SOL    HW2 1568   2.024   0.129   0.296
  610SOL     OW 1569   2.475   0.842   1.431
  610SOL    HW1 1570   2.531   0.923   1.414
  610SOL    HW2 1571   2.534   0.762   1.434
  611SOL     OW 1572   3.312   1.220   1.633
  611SOL    HW1 1573   3.303   1.210   1.732
  611SOL    HW2 1574   3.408   1.213   1.607
  612SOL     OW 1575   2.252   1.741   1.560
  612SOL    HW1 1576   2.161   1.782   1.558
  612SOL    HW2 1577   2.245   1.647   1.592
  613SOL     OW 1578   2.456   0.745   0.652
  613SOL    HW1 1579   2.506   0.830   0.633
  613SOL    HW2 1580   2.368   0.747   0.604
  614SOL     OW 1581   3.639   0.342   1.642
  614SOL    HW1 1582   3.622   0.373   1.548
  614SOL    HW2 1583   3.555   0.305   1.680
  615SOL     OW 1584   3.592   0.934   1.517
  615SOL    HW1 1585   3.630   1.025   1.532
  615SOL    HW2 1586   3.584   0.917   1.418
  616SOL     OW 1587   2.083   1.314   1.844
  616SOL    HW1 1588   2.018   1.241   1.823
  616SOL    HW2 1589   2.087   1.328   1.942
  617SOL     OW 1590   2.534   1.391   1.624
  617SOL    HW1 1591   2.456   1.341   1.662
  617SOL    HW2 1592   2.531   1.486   1.655
  618SOL     OW 1593   2.290   0.424   0.520
  618SOL    HW1 1594   2.320   0.352   0.458
  618SOL    HW2 1595   2.251   0.384   0.603
  619SOL     OW 1596   2.179   0.547   1.280
  619SOL    HW1 1597   2.217   0.488   1.352
  619SOL    HW2 1598   2.219   0.521   1.192
  620SOL     OW 1599   2.674   1.586   0.687
  620SOL    HW1 1600   2.706   1.596   0.593
  620SOL    HW2 1601   2.595   1.524   0.689
  621SOL     OW 1602   3.286   0.214   1.112
  621SOL    HW1 1603   3.338   0.149   1.167
  621SOL    HW2 1604   3.237   0.277   1.173
  622SOL     OW 1605   2.863   0.034   1.154
  622SOL    HW1 1606   2.800  -0.038   1.123
  622SOL    HW2 1607   2.956  -0.002   1.154
  623SOL     OW 1608   3.162   0.453   0.691
  623SOL    HW1 1609   3.103   0.533   0.695
  623SOL    HW2 1610   3.177   0.418   0.784
  624SOL     OW 1611   3.455   0.221   0.882
  624SOL    HW1 1612   3.371   0.220   0.936
  624SOL    HW2 1613   3.457   0.304   0.826
  625SOL     OW 1614   2.431   1.275   3.027
  625SOL    HW1 1615   2.338   1.268   2.990
  625SOL    HW2 1616   2.442   1.364   3.071
  626SOL     OW 1617   3.417   1.511   2.565
  626SOL    HW1 1618   3.360   1.495   2.646
  626SOL    HW2 1619   3.358   1.521   2.485
  627SOL     OW 1620   2.300   0.392   3.361
  627SOL    HW1 1621   2.382   0.336   3.370
  627SOL    HW2 1622   2.219   0.334   3.365
  628SOL     OW 1623   2.482   1.786   3.301
  628SOL    HW1 1624   2.390   1.769   3.336
  628SOL    HW2 1625   2.510   1.878   3.327
  629SOL     OW 1626   2.468   0.964   1.985
  629SOL    HW1 1627   2.475   1.048   1.931
  629SOL    HW2 1628   2.514   0.977   2.073
  630SOL     OW 1629   1.889   1.596   1.979
  630SOL    HW1 1630   1.870   1.500   2.000
  630SOL    HW2 1631   1.856   1.654   2.054
  631SOL     OW 1632   3.551   0.922   2.474
  631SOL    HW1 1633   3.646   0.893   2.482
  631SOL    HW2 1634   3.543   0.987   2.399
  632SOL     OW 1635   1.975   0.737   3.459
  632SOL    HW1 1636   2.063   0.724   3.504
  632SOL    HW2 1637   1.962   0.834   3.437
  633SOL     OW 1638   2.671   0.004   2.364
  633SOL    HW1 1639   2.711   0.095   2.355
  633SOL    HW2 1640   2.571   0.012   2.370
  634SOL     OW 1641   3.387   0.999   2.052
  634SOL    HW1 1642   3.324   0.923   2.065
  634SOL    HW2 1643   3.435   1.017   2.138
  635SOL     OW 1644   3.328   1.417   2.815
  635SOL    HW1 1645   3.269   1.423   2.895
  635SOL    HW2 1646   3.313   1.329   2.769
  636SOL     OW 1647   2.460   0.729   2.132
  636SOL    HW1 1648   2.484   0.798   2.064
  636SOL    HW2 1649   2.382   0.762   2.186
  637SOL     OW 1650   3.143   0.345   2.806
  637SOL    HW1 1651   3.057   0.295   2.793
  637SOL    HW2 1652   3.205   0.291   2.862
  638SOL     OW 1653   2.669   0.605   3.327
  638SOL    HW1 1654   2.622   0.602   3.416
  638SOL    HW2 1655   2.618   0.550   3.261
  639SOL     OW 1656   2.835   0.890   3.434
  639SOL    HW1 1657   2.881   0.806   3.405
  639SOL    HW2 1658   2.779   0.924   3.359
  640SOL     OW 1659   2.853   0.410   3.104
  640SOL    HW1 1660   2.776   0.444   3.158
  640SOL    HW2 1661   2.819   0.359   3.025
  641SOL     OW 1662   2.903   0.701   2.291
  641SOL    HW1 1663   2.929   0.697   2.387
  641SOL    HW2 1664   2.818   0.650   2.277
  642SOL     OW 1665   1.992   1.821   3.433
  642SOL    HW1 1666   1.982   1.806   3.532
  642SOL    HW2 1667   1.906   1.857   3.397
  643SOL     OW 1668   2.727   0.348   2.057
  643SOL    HW1 1669   2.786   0.411   2.008
  643SOL    HW2 1670   2.746   0.254   2.028
  644SOL     OW 1671   3.224   1.144   2.407
  644SOL    HW1 1672   3.307   1.115   2.359
  644SOL    HW2 1673   3.175   1.211   2.351
  645SOL     OW 1674   2.412   0.196   2.747
  645SOL    HW1 1675   2.407   0.191   2.847
  645SOL    HW2 1676   2.414   0.292   2.718
  646SOL     OW 1677   3.657   1.066   2.735
  646SOL    HW1 1678   3.595   1.051   2.659
  646SOL    HW2 1679   3.605   1.077   2.820
  647SOL     OW 1680   3.089   1.550   3.368
  647SOL    HW1 1681   3.095   1.473   3.432
  647SOL    HW2 1682   3.037   1.524   3.288
  648SOL     OW 1683   2.183   0.943   2.104
  648SOL    HW1 1684   2.265   0.982   2.062
  648SOL    HW2 1685   2.156   0.861   2.055
  649SOL     OW 1686   3.320   0.735   2.590
  649SOL    HW1 1687   3.315   0.670   2.665
  649SOL    HW2 1688   3.400   0.794   2.603
  650SOL     OW 1689   2.973   1.776   2.099
  650SOL    HW1 1690   2.913   1.714   2.149
  650SOL    HW2 1691   3.004   1.732   2.014
  651SOL     OW 1692   3.494   1.377   1.943
  651SOL    HW1 1693   3.462   1.471   1.933
  651SOL    HW2 1694   3.418   1.314   1.931
  652SOL     OW 1695   2.326   1.743   2.185
  652SOL    HW1 1696   2.359   1.782   2.271
  652SOL    HW2 1697   2.402   1.736   2.120
  653SOL     OW 1698   2.111   1.785   3.103
  653SOL    HW1 1699   2.168   1.720   3.153
  653SOL    HW2 1700   2.095   1.752   3.010
  654SOL     OW 1701   2.802   1.698   2.766
  654SOL    HW1 1702   2.882   1.641   2.787
  654SOL    HW2 1703   2.753   1.658   2.689
  655SOL     OW 1704   2.244   0.700   2.342
  655SOL    HW1 1705   2.289   0.610   2.339
  655SOL    HW2 1706   2.150   0.689   2.375
  656SOL     OW 1707   2.665   1.402   2.786
  656SOL    HW1 1708   2.755   1.416   2.744
  656SOL    HW2 1709   2.594   1.404   2.715
  657SOL     OW 1710   3.296   1.188   1.903
  657SOL    HW1 1711   3.328   1.112   1.960
  657SOL    HW2 1712   3.204   1.215   1.933
  658SOL     OW 1713   2.321   1.152   2.603
  658SOL    HW1 1714   2.250   1.125   2.668
  658SOL    HW2 1715   2.295   1.124   2.510
  659SOL     OW 1716   3.133   1.797   2.453
  659SOL    HW1 1717   3.177   1.861   2.389
  659SOL    HW2 1718   3.083   1.849   2.523
  660SOL     OW 1719   2.894   0.549   1.878
  660SOL    HW1 1720   2.853   0.631   1.839
  660SOL    HW2 1721   2.958   0.575   1.951
  661SOL     OW 1722   1.940   0.556   3.248
  661SOL    HW1 1723   2.032   0.555   3.207
  661SOL    HW2 1724   1.934   0.630   3.315
  662SOL     OW 1725   2.423   0.222   3.009
  662SOL    HW1 1726   2.461   0.138   3.046
  662SOL    HW2 1727   2.335   0.241   3.053
  663SOL     OW 1728   2.728   0.454   2.504
  663SOL    HW1 1729   2.696   0.526   2.442
  663SOL    HW2 1730   2.752   0.373   2.451
  664SOL     OW 1731   2.879   0.039   2.615
  664SOL    HW1 1732   2.807   0.044   2.546
  664SOL    HW2 1733   2.855  -0.030   2.684
  665SOL     OW 1734   3.291   1.173   2.729
  665SOL    HW1 1735   3.236   1.089   2.722
  665SOL    HW2 1736   3.317   1.202   2.637
  666SOL     OW 1737   2.350   1.385   2.036
  666SOL    HW1 1738   2.263   1.370   2.083
  666SOL    HW2 1739   2.333   1.411   1.941
  667SOL     OW 1740   3.616   1.223   3.450
  667SOL    HW1 1741   3.707   1.184   3.437
  667SOL    HW2 1742   3.624   1.319   3.474
  668SOL     OW 1743   2.973   1.195   2.962
  668SOL    HW1 1744   2.933   1.239   3.043
  668SOL    HW2 1745   2.932   1.232   2.879
  669SOL     OW 1746   1.926   1.564   3.193
  669SOL    HW1 1747   1.880   1.646   3.159
  669SOL    HW2 1748   2.024   1.583   3.202
  670SOL     OW 1749   3.114   1.348   2.250
  670SOL    HW1 1750   3.164   1.425   2.290
  670SOL    HW2 1751   3.019   1.350   2.282
  671SOL     OW 1752   3.134   1.445   3.004
  671SOL    HW1 1753   3.181   1.458   3.091
  671SOL    HW2 1754   3.068   1.371   3.013
  672SOL     OW 1755   2.216   1.510   3.191
  672SOL    HW1 1756   2.195   1.466   3.104
  672SOL    HW2 1757   2.313   1.536   3.194
  673SOL     OW 1758   2.264   0.751   3.460
  673SOL    HW1 1759   2.332   0.806   3.413
  673SOL    HW2 1760   2.304   0.663   3.487
  674SOL     OW 1761   2.875   0.105   3.632
  674SOL    HW1 1762   2.881   0.190   3.580
  674SOL    HW2 1763   2.907   0.029   3.575
  675SOL     OW 1764   2.435   0.870   2.891
  675SOL    HW1 1765   2.479   0.959   2.882
  675SOL    HW2 1766   2.372   0.870   2.968
  676SOL     OW 1767   3.222   0.862   2.907
  676SOL    HW1 1768   3.147   0.862   2.841
  676SOL    HW2 1769   3.259   0.770   2.916
  677SOL     OW 1770   3.071   0.525   2.137
  677SOL    HW1 1771   3.084   0.441   2.191
  677SOL    HW2 1772   3.042   0.599   2.197
  678SOL     OW 1773   1.899   1.310   3.144
  678SOL    HW1 1774   1.952   1.261   3.212
  678SOL    HW2 1775   1.921   1.408   3.149
  679SOL     OW 1776   3.590   0.935   3.716
  679SOL    HW1 1777   3.544   0.928   3.627
  679SOL    HW2 1778   3.528   0.979   3.782
  680SOL     OW 1779   2.169   0.063   2.480
  680SOL    HW1 1780   2.158   0.157   2.513
  680SOL    HW2 1781   2.164   0.000   2.557
  681SOL     OW 1782   3.721   1.518   3.467
  681SOL    HW1 1783   3.735   1.545   3.372
  681SOL    HW2 1784   3.804   1.540   3.520
  682SOL     OW 1785   2.212   0.898   3.666
  682SOL    HW1 1786   2.288   0.942   3.714
  682SOL    HW2 1787   2.247   0.851   3.584
  683SOL     OW 1788   3.165   0.838   1.904
  683SOL    HW1 1789   3.199   0.745   1.919
  683SOL    HW2 1790   3.183   0.865   1.809
  684SOL     OW 1791   3.000   0.380   3.540
  684SOL    HW1 1792   2.955   0.443   3.604
  684SOL    HW2 1793   3.093   0.411   3.523
  685SOL     OW 1794   2.366   1.568   2.772
  685SOL    HW1 1795   2.432   1.642   2.781
  685SOL    HW2 1796   2.410   1.489   2.730
  686SOL     OW 1797   1.902   0.544   2.976
  686SOL    HW1 1798   1.987   0.511   2.935
  686SOL    HW2 1799   1.915   0.559   3.074
  687SOL     OW 1800   2.051   0.520   3.584
  687SOL    HW1 1801   2.110   0.480   3.514
  687SOL    HW2 1802   1.993   0.591   3.543
  688SOL     OW 1803   3.231   0.950   3.522
  688SOL    HW1 1804   3.270   1.039   3.542
  688SOL    HW2 1805   3.241   0.930   3.425
  689SOL     OW 1806   3.519   0.604   3.068
  689SOL    HW1 1807   3.481   0.535   3.130
  689SOL    HW2 1808   3.601   0.568   3.024
  690SOL     OW 1809   2.114   1.564   3.606
  690SOL    HW1 1810   2.084   1.621   3.682
  690SOL    HW2 1811   2.107   1.467   3.632
  691SOL     OW 1812   3.209   1.059   3.096
  691SOL    HW1 1813   3.233   0.996   3.022
  691SOL    HW2 1814   3.119   1.099   3.078
  692SOL     OW 1815   3.114   1.731   2.990
  692SOL    HW1 1816   3.198   1.736   2.936
  692SOL    HW2 1817   3.091   1.635   3.008
  693SOL     OW 1818   3.250   1.573   2.339
  693SOL    HW1 1819   3.317   1.585   2.265
  693SOL    HW2 1820   3.210   1.662   2.362
  694SOL     OW 1821   2.692   1.273   3.284
  694SOL    HW1 1822   2.687   1.306   3.379
  694SOL    HW2 1823   2.606   1.292   3.238
  695SOL     OW 1824   3.512   1.720   3.256
  695SOL    HW1 1825   3.565   1.730   3.172
  695SOL    HW2 1826   3.485   1.810   3.290
  696SOL     OW 1827   2.684   1.002   3.234
  696SOL    HW1 1828   2.724   1.001   3.142
  696SOL    HW2 1829   2.694   1.094   3.274
  697SOL     OW 1830   2.234   1.288   3.352
  697SOL    HW1 1831   2.221   1.381   3.318
  697SOL    HW2 1832   2.150   1.236   3.339
  698SOL     OW 1833   2.876   0.236   2.833
  698SOL    HW1 1834   2.868   0.200   2.740
  698SOL    HW2 1835   2.874   0.160   2.898
  699SOL     OW 1836   2.452   1.487   2.353
  699SOL    HW1 1837   2.494   1.429   2.283
  699SOL    HW2 1838   2.408   1.566   2.309
  700SOL     OW 1839   2.117   1.348   2.152
  700SOL    HW1 1840   2.021   1.349   2.125
  700SOL    HW2 1841   2.129   1.401   2.236
  701SOL     OW 1842   1.967   1.013   3.588
  701SOL    HW1 1843   1.890   0.980   3.642
  701SOL    HW2 1844   2.052   0.983   3.630
  702SOL     OW 1845   2.534   0.203   3.351
  702SOL    HW1 1846   2.624   0.187   3.311
  702SOL    HW2 1847   2.542   0.208   3.450
  703SOL     OW 1848   1.934   0.166   2.180
  703SOL    HW1 1849   1.917   0.249   2.126
  703SOL    HW2 1850   2.024   0.129   2.158
  704SOL     OW 1851   3.045   1.335   1.981
  704SOL    HW1 1852   2.946   1.324   1.983
  704SOL    HW2 1853   3.079   1.350   2.074
  705SOL     OW 1854   3.312   1.220   3.495
  705SOL    HW1 1855   3.303   1.210   3.594
  705SOL    HW2 1856   3.408   1.213   3.469
  706SOL     OW 1857   3.536   0.883   3.116
  706SOL    HW1 1858   3.509   0.794   3.079
  706SOL    HW2 1859   3.537   0.951   3.043
  707SOL     OW 1860   2.456   0.745   2.514
  707SOL    HW1 1861   2.506   0.830   2.495
  707SOL    HW2 1862   2.368   0.747   2.466
  708SOL     OW 1863   3.639   0.342   3.504
  708SOL    HW1 1864   3.622   0.373   3.410
  708SOL    HW2 1865   3.555   0.305   3.542
  709SOL     OW 1866   3.592   0.934   3.379
  709SOL    HW1 1867   3.630   1.025   3.394
  709SOL    HW2 1868   3.584   0.917   3.280
  710SOL     OW 1869   2.523   1.790   2.815
  710SOL    HW1 1870   2.477   1.878   2.802
  710SOL    HW2 1871   2.622   1.802   2.808
  711SOL     OW 1872   2.721   0.956   2.723
  711SOL    HW1 1873   2.775   0.887   2.771
  711SOL    HW2 1874   2.689   1.025   2.789
  712SOL     OW 1875   2.945   0.984   1.949
  712SOL    HW1 1876   2.922   1.037   1.867
  712SOL    HW2 1877   3.026   0.928   1.930
  713SOL     OW 1878   3.723   1.569   2.713
  713SOL    HW1 1879   3.652   1.557   2.643
  713SOL    HW2 1880   3.724   1.490   2.773
  714SOL     OW 1881   1.941   1.240   2.515
  714SOL    HW1 1882   1.940   1.193   2.603
  714SOL    HW2 1883   2.023   1.212   2.464
  715SOL     OW 1884   3.567   1.487   2.966
  715SOL    HW1 1885   3.474   1.462   2.939
  715SOL    HW2 1886   3.593   1.437   3.048
  716SOL     OW 1887   2.674   1.586   2.549
  716SOL    HW1 1888   2.706   1.596   2.455
  716SOL    HW2 1889   2.595   1.524   2.551
  717SOL     OW 1890   3.286   0.214   2.974
  717SOL    HW1 1891   3.338   0.149   3.029
  717SOL    HW2 1892   3.237   0.277   3.035
  718SOL     OW 1893   2.863   0.034   3.016
  718SOL    HW1 1894   2.800  -0.038   2.985
  718SOL    HW2 1895   2.956  -0.002   3.016
  719SOL     OW 1896   3.162   0.453   2.553
  719SOL    HW1 1897   3.103   0.533   2.557
  719SOL    HW2 1898   3.177   0.418   2.646
  720SOL     OW 1899   1.901   1.077   2.162
  720SOL    HW1 1900   2.000   1.066   2.153
  720SOL    HW2 1901   1.861   0.991   2.194
  721SOL     OW 1902   2.092   0.628   3.837
  721SOL    HW1 1903   1.999   0.626   3.874
  721SOL    HW2 1904   2.093   0.589   3.745
  722SOL     OW 1905   2.093   1.713   4.207
  722SOL    HW1 1906   2.127   1.790   4.261
  722SOL    HW2 1907   2.137   1.713   4.117
  723SOL     OW 1908   3.387   0.999   3.914
  723SOL    HW1 1909   3.324   0.923   3.927
  723SOL    HW2 1910   3.435   1.017   4.000
  724SOL     OW 1911   2.460   0.729   3.994
  724SOL    HW1 1912   2.484   0.798   3.926
  724SOL    HW2 1913   2.382   0.762   4.048
  725SOL     OW 1914   2.727   0.348   3.919
  725SOL    HW1 1915   2.786   0.411   3.870
  725SOL    HW2 1916   2.746   0.254   3.890
  726SOL     OW 1917   2.183   0.943   3.966
  726SOL    HW1 1918   2.265   0.982   3.924
  726SOL    HW2 1919   2.156   0.861   3.917
  727SOL     OW 1920   3.494   1.377   3.805
  727SOL    HW1 1921   3.462   1.471   3.795
  727SOL    HW2 1922   3.418   1.314   3.793
  728SOL     OW 1923   3.296   1.188   3.765
  728SOL    HW1 1924   3.328   1.112   3.822
  728SOL    HW2 1925   3.204   1.215   3.795
  729SOL     OW 1926   2.159   0.035   3.895
  729SOL    HW1 1927   2.208   0.119   3.874
  729SOL    HW2 1928   2.221  -0.030   3.940
  730SOL     OW 1929   2.350   1.385   3.898
  730SOL    HW1 1930   2.263   1.370   3.945
  730SOL    HW2 1931   2.333   1.411   3.803
  731SOL     OW 1932   3.252   0.575   3.802
  731SOL    HW1 1933   3.198   0.554   3.883
  731SOL    HW2 1934   3.343   0.534   3.811
  732SOL     OW 1935   2.389   0.256   4.052
  732SOL    HW1 1936   2.416   0.197   3.977
  732SOL    HW2 1937   2.389   0.351   4.021
  733SOL     OW 1938   3.071   0.525   3.999
  733SOL    HW1 1939   3.084   0.441   4.053
  733SOL    HW2 1940   3.042   0.599   4.059
  734SOL     OW 1941   2.335   0.500   3.915
  734SOL    HW1 1942   2.396   0.580   3.919
  734SOL    HW2 1943   2.240   0.531   3.922
  735SOL     OW 1944   2.534   1.616   3.878
  735SOL    HW1 1945   2.543   1.626   3.779
  735SOL    HW2 1946   2.494   1.527   3.899
  736SOL     OW 1947   2.778   0.910   4.015
  736SOL    HW1 1948   2.841   0.948   3.947
  736SOL    HW2 1949   2.818   0.827   4.054
  737SOL     OW 1950   2.117   1.348   4.014
  737SOL    HW1 1951   2.021   1.349   3.987
  737SOL    HW2 1952   2.129   1.401   4.098
  738SOL     OW 1953   1.937   0.345   3.757
  738SOL    HW1 1954   1.845   0.317   3.728
  738SOL    HW2 1955   1.968   0.422   3.701
  739SOL     OW 1956   1.934   0.166   4.042
  739SOL    HW1 1957   1.917   0.249   3.988
  739SOL    HW2 1958   2.024   0.129   4.020
  740SOL     OW 1959   3.045   1.335   3.843
  740SOL    HW1 1960   2.946   1.324   3.845
  740SOL    HW2 1961   3.079   1.350   3.936
  741SOL     OW 1962   3.087   0.325   4.173
  741SOL    HW1 1963   3.152   0.251   4.162
  741SOL    HW2 1964   3.107   0.375   4.257
  742SOL     OW 1965   2.945   0.984   3.811
  742SOL    HW1 1966   2.922   1.037   3.729
  742SOL    HW2 1967   3.026   0.928   3.792
  743SOL     OW 1968   2.087   2.137   0.996
  743SOL    HW1 1969   2.122   2.120   1.088
  743SOL    HW2 1970   1.999   2.092   0.984
  744SOL     OW 1971   2.431   3.137   1.165
  744SOL    HW1 1972   2.338   3.130   1.128
  744SOL    HW2 1973   2.442   3.226   1.209
  745SOL     OW 1974   3.617   2.469   0.231
  745SOL    HW1 1975   3.605   2.456   0.132
  745SOL    HW2 1976   3.587   2.388   0.280
  746SOL     OW 1977   2.548   3.023   1.803
  746SOL    HW1 1978   2.608   3.102   1.817
  746SOL    HW2 1979   2.462   3.054   1.762
  747SOL     OW 1980   2.197   3.297   1.061
  747SOL    HW1 1981   2.119   3.266   1.008
  747SOL    HW2 1982   2.255   3.355   1.004
  748SOL     OW 1983   3.322   3.367   1.339
  748SOL    HW1 1984   3.346   3.461   1.365
  748SOL    HW2 1985   3.306   3.313   1.421
  749SOL     OW 1986   2.300   2.254   1.499
  749SOL    HW1 1987   2.382   2.198   1.508
  749SOL    HW2 1988   2.219   2.196   1.503
  750SOL     OW 1989   3.465   2.309   0.737
  750SOL    HW1 1990   3.391   2.355   0.687
  750SOL    HW2 1991   3.516   2.377   0.790
  751SOL     OW 1992   2.093   3.575   0.483
  751SOL    HW1 1993   2.127   3.652   0.537
  751SOL    HW2 1994   2.137   3.575   0.393
  752SOL     OW 1995   2.092   3.296   0.538
  752SOL    HW1 1996   2.066   3.392   0.538
  752SOL    HW2 1997   2.021   3.242   0.583
  753SOL     OW 1998   2.102   2.953   0.886
  753SOL    HW1 1999   2.116   2.869   0.938
  753SOL    HW2 2000   2.047   3.017   0.941
  754SOL     OW 2001   2.482   3.648   1.439
  754SOL    HW1 2002   2.390   3.631   1.474
  754SOL    HW2 2003   2.510   3.740   1.465
  755SOL     OW 2004   2.468   2.826   0.123
  755SOL    HW1 2005   2.475   2.910   0.069
  755SOL    HW2 2006   2.514   2.839   0.211
  756SOL     OW 2007   1.984   2.505   0.563
  756SOL    HW1 2008   1.939   2.417   0.580
  756SOL    HW2 2009   1.983   2.559   0.647
  757SOL     OW 2010   3.704   3.629   0.359
  757SOL    HW1 2011   3.758   3.600   0.439
  757SOL    HW2 2012   3.734   3.719   0.330
  758SOL     OW 2013   3.551   2.784   0.612
  758SOL    HW1 2014   3.646   2.755   0.620
  758SOL    HW2 2015   3.543   2.849   0.537
  759SOL     OW 2016   3.155   3.090   1.423
  759SOL    HW1 2017   3.192   3.017   1.365
  759SOL    HW2 2018   3.207   3.095   1.508
  760SOL     OW 2019   2.059   2.838   1.264
  760SOL    HW1 2020   2.148   2.793   1.250
  760SOL    HW2 2021   1.986   2.773   1.245
  761SOL     OW 2022   3.387   2.861   0.190
  761SOL    HW1 2023   3.324   2.785   0.203
  761SOL    HW2 2024   3.435   2.879   0.276
  762SOL     OW 2025   2.179   2.113   1.801
  762SOL    HW1 2026   2.250   2.184   1.807
  762SOL    HW2 2027   2.091   2.152   1.829
  763SOL     OW 2028   3.143   2.207   0.944
  763SOL    HW1 2029   3.057   2.157   0.931
  763SOL    HW2 2030   3.205   2.153   1.000
  764SOL     OW 2031   2.669   2.467   1.465
  764SOL    HW1 2032   2.622   2.464   1.554
  764SOL    HW2 2033   2.618   2.412   1.399
  765SOL     OW 2034   2.835   2.752   1.572
  765SOL    HW1 2035   2.881   2.668   1.543
  765SOL    HW2 2036   2.779   2.786   1.497
  766SOL     OW 2037   2.903   2.563   0.429
  766SOL    HW1 2038   2.929   2.559   0.525
  766SOL    HW2 2039   2.818   2.512   0.415
  767SOL     OW 2040   3.581   2.447   1.831
  767SOL    HW1 2041   3.555   2.536   1.795
  767SOL    HW2 2042   3.579   2.379   1.758
  768SOL     OW 2043   3.224   3.006   0.545
  768SOL    HW1 2044   3.307   2.977   0.497
  768SOL    HW2 2045   3.175   3.073   0.489
  769SOL     OW 2046   2.870   3.318   0.477
  769SOL    HW1 2047   2.824   3.390   0.425
  769SOL    HW2 2048   2.866   3.338   0.575
  770SOL     OW 2049   2.183   2.805   0.242
  770SOL    HW1 2050   2.265   2.844   0.200
  770SOL    HW2 2051   2.156   2.723   0.193
  771SOL     OW 2052   2.323   3.128   1.727
  771SOL    HW1 2053   2.273   3.129   1.641
  771SOL    HW2 2054   2.260   3.110   1.803
  772SOL     OW 2055   2.973   3.638   0.237
  772SOL    HW1 2056   2.913   3.576   0.287
  772SOL    HW2 2057   3.004   3.594   0.152
  773SOL     OW 2058   3.494   3.239   0.081
  773SOL    HW1 2059   3.462   3.333   0.071
  773SOL    HW2 2060   3.418   3.176   0.069
  774SOL     OW 2061   2.326   3.605   0.323
  774SOL    HW1 2062   2.359   3.644   0.409
  774SOL    HW2 2063   2.402   3.598   0.258
  775SOL     OW 2064   3.262   1.969   0.426
  775SOL    HW1 2065   3.238   1.932   0.336
  775SOL    HW2 2066   3.361   1.985   0.430
  776SOL     OW 2067   2.111   3.647   1.241
  776SOL    HW1 2068   2.168   3.582   1.291
  776SOL    HW2 2069   2.095   3.614   1.148
  777SOL     OW 2070   2.244   2.562   0.480
  777SOL    HW1 2071   2.289   2.472   0.477
  777SOL    HW2 2072   2.150   2.551   0.513
  778SOL     OW 2073   2.476   1.984   0.117
  778SOL    HW1 2074   2.574   1.962   0.124
  778SOL    HW2 2075   2.445   1.967   0.024
  779SOL     OW 2076   3.213   2.452   1.433
  779SOL    HW1 2077   3.241   2.409   1.518
  779SOL    HW2 2078   3.238   2.548   1.434
  780SOL     OW 2079   2.665   3.264   0.924
  780SOL    HW1 2080   2.755   3.278   0.882
  780SOL    HW2 2081   2.594   3.266   0.853
  781SOL     OW 2082   2.784   2.365   0.899
  781SOL    HW1 2083   2.759   2.356   0.803
  781SOL    HW2 2084   2.832   2.283   0.930
  782SOL     OW 2085   2.401   1.926   0.512
  782SOL    HW1 2086   2.320   1.927   0.570
  782SOL    HW2 2087   2.404   2.009   0.457
  783SOL     OW 2088   2.797   2.098   0.480
  783SOL    HW1 2089   2.749   2.139   0.402
  783SOL    HW2 2090   2.896   2.096   0.461
  784SOL     OW 2091   2.894   2.411   0.016
  784SOL    HW1 2092   2.853   2.493  -0.023
  784SOL    HW2 2093   2.958   2.437   0.089
  785SOL     OW 2094   2.728   2.316   0.642
  785SOL    HW1 2095   2.696   2.388   0.580
  785SOL    HW2 2096   2.752   2.235   0.589
  786SOL     OW 2097   3.291   3.035   0.867
  786SOL    HW1 2098   3.236   2.951   0.860
  786SOL    HW2 2099   3.317   3.064   0.775
  787SOL     OW 2100   2.350   3.247   0.174
  787SOL    HW1 2101   2.263   3.232   0.221
  787SOL    HW2 2102   2.333   3.273   0.079
  788SOL     OW 2103   2.926   3.209   1.340
  788SOL    HW1 2104   2.846   3.186   1.395
  788SOL    HW2 2105   3.009   3.183   1.389
  789SOL     OW 2106   3.500   2.961   1.079
  789SOL    HW1 2107   3.505   3.042   1.138
  789SOL    HW2 2108   3.414   2.963   1.028
  790SOL     OW 2109   3.136   2.248   1.262
  790SOL    HW1 2110   3.157   2.322   1.326
  790SOL    HW2 2111   3.047   2.265   1.219
  791SOL     OW 2112   2.229   2.962   0.501
  791SOL    HW1 2113   2.222   3.045   0.445
  791SOL    HW2 2114   2.233   2.882   0.441
  792SOL     OW 2115   2.428   2.399   0.865
  792SOL    HW1 2116   2.440   2.465   0.791
  792SOL    HW2 2117   2.474   2.433   0.948
  793SOL     OW 2118   3.114   3.210   0.388
  793SOL    HW1 2119   3.164   3.287   0.428
  793SOL    HW2 2120   3.019   3.212   0.420
  794SOL     OW 2121   3.134   3.307   1.142
  794SOL    HW1 2122   3.181   3.320   1.229
  794SOL    HW2 2123   3.068   3.233   1.151
  795SOL     OW 2124   2.264   2.613   1.598
  795SOL    HW1 2125   2.332   2.668   1.551
  795SOL    HW2 2126   2.304   2.525   1.625
  796SOL     OW 2127   3.449   2.641   1.670
  796SOL    HW1 2128   3.357   2.679   1.665
  796SOL    HW2 2129   3.509   2.688   1.605
  797SOL     OW 2130   2.875   1.967   1.770
  797SOL    HW1 2131   2.881   2.052   1.718
  797SOL    HW2 2132   2.907   1.891   1.713
  798SOL     OW 2133   2.366   1.912   1.740
  798SOL    HW1 2134   2.324   1.855   1.670
  798SOL    HW2 2135   2.300   1.981   1.772
  799SOL     OW 2136   3.222   2.724   1.045
  799SOL    HW1 2137   3.147   2.724   0.979
  799SOL    HW2 2138   3.259   2.632   1.054
  800SOL     OW 2139   3.071   2.387   0.275
  800SOL    HW1 2140   3.084   2.303   0.329
  800SOL    HW2 2141   3.042   2.461   0.335
  801SOL     OW 2142   1.899   3.172   1.282
  801SOL    HW1 2143   1.952   3.123   1.350
  801SOL    HW2 2144   1.921   3.270   1.287
  802SOL     OW 2145   2.594   2.496   1.064
  802SOL    HW1 2146   2.653   2.470   0.988
  802SOL    HW2 2147   2.566   2.592   1.053
  803SOL     OW 2148   2.169   1.925   0.618
  803SOL    HW1 2149   2.158   2.019   0.651
  803SOL    HW2 2150   2.164   1.862   0.695
  804SOL     OW 2151   2.842   3.435   1.700
  804SOL    HW1 2152   2.822   3.479   1.612
  804SOL    HW2 2153   2.881   3.344   1.684
  805SOL     OW 2154   3.402   2.136   0.125
  805SOL    HW1 2155   3.341   2.061   0.148
  805SOL    HW2 2156   3.424   2.188   0.208
  806SOL     OW 2157   2.930   3.195   0.849
  806SOL    HW1 2158   2.937   3.111   0.794
  806SOL    HW2 2159   2.992   3.264   0.813
  807SOL     OW 2160   2.201   2.371   1.006
  807SOL    HW1 2161   2.149   2.288   0.989
  807SOL    HW2 2162   2.278   2.376   0.942
  808SOL     OW 2163   3.022   2.069   1.477
  808SOL    HW1 2164   3.022   2.133   1.554
  808SOL    HW2 2165   3.050   2.117   1.394
  809SOL     OW 2166   1.870   3.188   0.200
  809SOL    HW1 2167   1.777   3.209   0.169
  809SOL    HW2 2168   1.880   3.089   0.213
  810SOL     OW 2169   2.366   3.430   0.910
  810SOL    HW1 2170   2.432   3.504   0.919
  810SOL    HW2 2171   2.410   3.351   0.868
  811SOL     OW 2172   2.864   2.658   1.238
  811SOL    HW1 2173   2.905   2.626   1.324
  811SOL    HW2 2174   2.768   2.631   1.235
  812SOL     OW 2175   1.902   2.406   1.114
  812SOL    HW1 2176   1.987   2.373   1.073
  812SOL    HW2 2177   1.915   2.421   1.212
  813SOL     OW 2178   2.792   3.540   1.465
  813SOL    HW1 2179   2.768   3.522   1.370
  813SOL    HW2 2180   2.822   3.634   1.475
  814SOL     OW 2181   2.021   2.999   1.466
  814SOL    HW1 2182   2.043   2.938   1.542
  814SOL    HW2 2183   2.031   2.950   1.380
  815SOL     OW 2184   3.164   2.717   0.309
  815SOL    HW1 2185   3.078   2.686   0.351
  815SOL    HW2 2186   3.160   2.703   0.210
  816SOL     OW 2187   3.621   3.609   1.154
  816SOL    HW1 2188   3.682   3.639   1.081
  816SOL    HW2 2189   3.583   3.520   1.132
  817SOL     OW 2190   2.765   1.948   0.133
  817SOL    HW1 2191   2.816   1.949   0.047
  817SOL    HW2 2192   2.821   1.906   0.204
  818SOL     OW 2193   3.250   3.435   0.477
  818SOL    HW1 2194   3.317   3.447   0.403
  818SOL    HW2 2195   3.210   3.524   0.500
  819SOL     OW 2196   1.992   3.656   1.851
  819SOL    HW1 2197   1.951   3.582   1.904
  819SOL    HW2 2198   2.056   3.707   1.909
  820SOL     OW 2199   3.142   2.789   0.672
  820SOL    HW1 2200   3.202   2.708   0.674
  820SOL    HW2 2201   3.182   2.858   0.612
  821SOL     OW 2202   2.534   3.478   0.154
  821SOL    HW1 2203   2.543   3.488   0.055
  821SOL    HW2 2204   2.494   3.389   0.175
  822SOL     OW 2205   3.512   3.582   1.394
  822SOL    HW1 2206   3.565   3.592   1.310
  822SOL    HW2 2207   3.485   3.672   1.428
  823SOL     OW 2208   3.703   2.037   0.963
  823SOL    HW1 2209   3.742   1.952   0.927
  823SOL    HW2 2210   3.605   2.039   0.944
  824SOL     OW 2211   3.056   3.474   0.031
  824SOL    HW1 2212   3.062   3.381   0.068
  824SOL    HW2 2213   2.997   3.474  -0.049
  825SOL     OW 2214   2.684   2.864   1.372
  825SOL    HW1 2215   2.724   2.863   1.280
  825SOL    HW2 2216   2.694   2.956   1.412
  826SOL     OW 2217   2.778   2.772   0.291
  826SOL    HW1 2218   2.841   2.810   0.223
  826SOL    HW2 2219   2.818   2.689   0.330
  827SOL     OW 2220   3.476   3.154   1.289
  827SOL    HW1 2221   3.536   3.157   1.369
  827SOL    HW2 2222   3.401   3.218   1.302
  828SOL     OW 2223   2.901   2.960   0.696
  828SOL    HW1 2224   2.831   2.913   0.750
  828SOL    HW2 2225   2.960   2.892   0.653
  829SOL     OW 2226   2.876   2.098   0.971
  829SOL    HW1 2227   2.868   2.062   0.878
  829SOL    HW2 2228   2.874   2.022   1.036
  830SOL     OW 2229   2.117   3.210   0.290
  830SOL    HW1 2230   2.021   3.211   0.263
  830SOL    HW2 2231   2.129   3.263   0.374
  831SOL     OW 2232   2.534   2.065   1.489
  831SOL    HW1 2233   2.624   2.049   1.449
  831SOL    HW2 2234   2.542   2.070   1.588
  832SOL     OW 2235   3.302   2.718   1.398
  832SOL    HW1 2236   3.245   2.770   1.335
  832SOL    HW2 2237   3.398   2.730   1.374
  833SOL     OW 2238   3.045   3.197   0.119
  833SOL    HW1 2239   2.946   3.186   0.121
  833SOL    HW2 2240   3.079   3.212   0.212
  834SOL     OW 2241   3.355   3.629   0.959
  834SOL    HW1 2242   3.388   3.693   0.890
  834SOL    HW2 2243   3.421   3.623   1.034
  835SOL     OW 2244   3.312   3.082   1.633
  835SOL    HW1 2245   3.303   3.072   1.732
  835SOL    HW2 2246   3.408   3.075   1.607
  836SOL     OW 2247   3.639   2.204   1.642
  836SOL    HW1 2248   3.622   2.235   1.548
  836SOL    HW2 2249   3.555   2.167   1.680
  837SOL     OW 2250   2.523   3.652   0.953
  837SOL    HW1 2251   2.477   3.740   0.940
  837SOL    HW2 2252   2.622   3.664   0.946
  838SOL     OW 2253   2.534   3.253   1.624
  838SOL    HW1 2254   2.456   3.203   1.662
  838SOL    HW2 2255   2.531   3.348   1.655
  839SOL     OW 2256   2.290   2.286   0.520
  839SOL    HW1 2257   2.320   2.214   0.458
  839SOL    HW2 2258   2.251   2.246   0.603
  840SOL     OW 2259   3.567   3.349   1.104
  840SOL    HW1 2260   3.474   3.324   1.077
  840SOL    HW2 2261   3.593   3.299   1.186
  841SOL     OW 2262   2.179   2.409   1.280
  841SOL    HW1 2263   2.217   2.350   1.352
  841SOL    HW2 2264   2.219   2.383   1.192
  842SOL     OW 2265   3.286   2.076   1.112
  842SOL    HW1 2266   3.338   2.011   1.167
  842SOL    HW2 2267   3.237   2.139   1.173
  843SOL     OW 2268   2.863   1.896   1.154
  843SOL    HW1 2269   2.800   1.824   1.123
  843SOL    HW2 2270   2.956   1.860   1.154
  844SOL     OW 2271   2.632   3.192   0.301
  844SOL    HW1 2272   2.586   3.105   0.318
  844SOL    HW2 2273   2.723   3.189   0.342
  845SOL     OW 2274   3.214   1.914   0.168
  845SOL    HW1 2275   3.249   1.873   0.084
  845SOL    HW2 2276   3.124   1.876   0.188
  846SOL     OW 2277   3.455   2.083   0.882
  846SOL    HW1 2278   3.371   2.082   0.936
  846SOL    HW2 2279   3.457   2.166   0.826
  847SOL     OW 2280   1.901   2.939   0.300
  847SOL    HW1 2281   2.000   2.928   0.291
  847SOL    HW2 2282   1.861   2.853   0.332
  848SOL     OW 2283   2.737   3.508   0.337
  848SOL    HW1 2284   2.660   3.473   0.283
  848SOL    HW2 2285   2.705   3.579   0.399
  849SOL     OW 2286   1.881   2.230   2.509
  849SOL    HW1 2287   1.799   2.273   2.548
  849SOL    HW2 2288   1.853   2.157   2.446
  850SOL     OW 2289   2.431   3.137   3.027
  850SOL    HW1 2290   2.338   3.130   2.990
  850SOL    HW2 2291   2.442   3.226   3.071
  851SOL     OW 2292   3.417   3.373   2.565
  851SOL    HW1 2293   3.360   3.357   2.646
  851SOL    HW2 2294   3.358   3.383   2.485
  852SOL     OW 2295   2.547   2.874   2.527
  852SOL    HW1 2296   2.616   2.858   2.597
  852SOL    HW2 2297   2.474   2.931   2.565
  853SOL     OW 2298   2.548   3.023   3.665
  853SOL    HW1 2299   2.608   3.102   3.679
  853SOL    HW2 2300   2.462   3.054   3.624
  854SOL     OW 2301   2.300   2.254   3.361
  854SOL    HW1 2302   2.382   2.198   3.370
  854SOL    HW2 2303   2.219   2.196   3.365
  855SOL     OW 2304   3.465   2.309   2.599
  855SOL    HW1 2305   3.391   2.355   2.549
  855SOL    HW2 2306   3.516   2.377   2.652
  856SOL     OW 2307   2.989   3.203   3.552
  856SOL    HW1 2308   3.036   3.203   3.640
  856SOL    HW2 2309   2.941   3.116   3.541
  857SOL     OW 2310   2.092   3.296   2.400
  857SOL    HW1 2311   2.066   3.392   2.400
  857SOL    HW2 2312   2.021   3.242   2.445
  858SOL     OW 2313   2.482   3.648   3.301
  858SOL    HW1 2314   2.390   3.631   3.336
  858SOL    HW2 2315   2.510   3.740   3.327
  859SOL     OW 2316   2.468   2.826   1.985
  859SOL    HW1 2317   2.475   2.910   1.931
  859SOL    HW2 2318   2.514   2.839   2.073
  860SOL     OW 2319   3.551   2.784   2.474
  860SOL    HW1 2320   3.646   2.755   2.482
  860SOL    HW2 2321   3.543   2.849   2.399
  861SOL     OW 2322   1.975   2.599   3.459
  861SOL    HW1 2323   2.063   2.586   3.504
  861SOL    HW2 2324   1.962   2.696   3.437
  862SOL     OW 2325   2.475   3.227   2.588
  862SOL    HW1 2326   2.426   3.140   2.597
  862SOL    HW2 2327   2.452   3.270   2.501
  863SOL     OW 2328   3.529   3.576   2.434
  863SOL    HW1 2329   3.488   3.553   2.346
  863SOL    HW2 2330   3.511   3.502   2.499
  864SOL     OW 2331   3.143   2.207   2.806
  864SOL    HW1 2332   3.057   2.157   2.793
  864SOL    HW2 2333   3.205   2.153   2.862
  865SOL     OW 2334   3.438   3.524   2.169
  865SOL    HW1 2335   3.527   3.570   2.172
  865SOL    HW2 2336   3.417   3.500   2.074
  866SOL     OW 2337   2.669   2.467   3.327
  866SOL    HW1 2338   2.622   2.464   3.416
  866SOL    HW2 2339   2.618   2.412   3.261
  867SOL     OW 2340   2.853   2.272   3.104
  867SOL    HW1 2341   2.776   2.306   3.158
  867SOL    HW2 2342   2.819   2.221   3.025
  868SOL     OW 2343   2.903   2.563   2.291
  868SOL    HW1 2344   2.929   2.559   2.387
  868SOL    HW2 2345   2.818   2.512   2.277
  869SOL     OW 2346   1.938   2.673   2.651
  869SOL    HW1 2347   2.037   2.661   2.660
  869SOL    HW2 2348   1.914   2.768   2.672
  870SOL     OW 2349   3.581   2.447   3.693
  870SOL    HW1 2350   3.555   2.536   3.657
  870SOL    HW2 2351   3.579   2.379   3.620
  871SOL     OW 2352   2.870   3.318   2.339
  871SOL    HW1 2353   2.824   3.390   2.287
  871SOL    HW2 2354   2.866   3.338   2.437
  872SOL     OW 2355   3.657   2.928   2.735
  872SOL    HW1 2356   3.595   2.913   2.659
  872SOL    HW2 2357   3.605   2.939   2.820
  873SOL     OW 2358   3.320   2.597   2.590
  873SOL    HW1 2359   3.315   2.532   2.665
  873SOL    HW2 2360   3.400   2.656   2.603
  874SOL     OW 2361   2.323   3.128   3.589
  874SOL    HW1 2362   2.273   3.129   3.503
  874SOL    HW2 2363   2.260   3.110   3.665
  875SOL     OW 2364   2.973   3.638   2.099
  875SOL    HW1 2365   2.913   3.576   2.149
  875SOL    HW2 2366   3.004   3.594   2.014
  876SOL     OW 2367   3.262   1.969   2.288
  876SOL    HW1 2368   3.238   1.932   2.198
  876SOL    HW2 2369   3.361   1.985   2.292
  877SOL     OW 2370   2.802   3.560   2.766
  877SOL    HW1 2371   2.882   3.503   2.787
  877SOL    HW2 2372   2.753   3.520   2.689
  878SOL     OW 2373   3.213   2.452   3.295
  878SOL    HW1 2374   3.241   2.409   3.380
  878SOL    HW2 2375   3.238   2.548   3.296
  879SOL     OW 2376   2.665   3.264   2.786
  879SOL    HW1 2377   2.755   3.278   2.744
  879SOL    HW2 2378   2.594   3.266   2.715
  880SOL     OW 2379   3.296   3.050   1.903
  880SOL    HW1 2380   3.328   2.974   1.960
  880SOL    HW2 2381   3.204   3.077   1.933
  881SOL     OW 2382   2.797   2.098   2.342
  881SOL    HW1 2383   2.749   2.139   2.264
  881SOL    HW2 2384   2.896   2.096   2.323
  882SOL     OW 2385   3.133   3.659   2.453
  882SOL    HW1 2386   3.177   3.723   2.389
  882SOL    HW2 2387   3.083   3.711   2.523
  883SOL     OW 2388   1.940   2.418   3.248
  883SOL    HW1 2389   2.032   2.417   3.207
  883SOL    HW2 2390   1.934   2.492   3.315
  884SOL     OW 2391   2.728   2.316   2.504
  884SOL    HW1 2392   2.696   2.388   2.442
  884SOL    HW2 2393   2.752   2.235   2.451
  885SOL     OW 2394   2.389   2.118   2.190
  885SOL    HW1 2395   2.416   2.059   2.115
  885SOL    HW2 2396   2.389   2.213   2.159
  886SOL     OW 2397   3.616   3.085   3.450
  886SOL    HW1 2398   3.707   3.046   3.437
  886SOL    HW2 2399   3.624   3.181   3.474
  887SOL     OW 2400   2.926   3.209   3.202
  887SOL    HW1 2401   2.846   3.186   3.257
  887SOL    HW2 2402   3.009   3.183   3.251
  888SOL     OW 2403   3.454   3.491   3.487
  888SOL    HW1 2404   3.481   3.525   3.397
  888SOL    HW2 2405   3.533   3.453   3.533
  889SOL     OW 2406   2.973   3.057   2.962
  889SOL    HW1 2407   2.933   3.101   3.043
  889SOL    HW2 2408   2.932   3.094   2.879
  890SOL     OW 2409   2.842   2.978   3.581
  890SOL    HW1 2410   2.743   2.984   3.591
  890SOL    HW2 2411   2.865   2.898   3.525
  891SOL     OW 2412   3.136   2.248   3.124
  891SOL    HW1 2413   3.157   2.322   3.188
  891SOL    HW2 2414   3.047   2.265   3.081
  892SOL     OW 2415   2.229   2.962   2.363
  892SOL    HW1 2416   2.222   3.045   2.307
  892SOL    HW2 2417   2.233   2.882   2.303
  893SOL     OW 2418   2.428   2.399   2.727
  893SOL    HW1 2419   2.440   2.465   2.653
  893SOL    HW2 2420   2.474   2.433   2.810
  894SOL     OW 2421   3.134   3.307   3.004
  894SOL    HW1 2422   3.181   3.320   3.091
  894SOL    HW2 2423   3.068   3.233   3.013
  895SOL     OW 2424   2.264   2.613   3.460
  895SOL    HW1 2425   2.332   2.668   3.413
  895SOL    HW2 2426   2.304   2.525   3.487
  896SOL     OW 2427   3.449   2.641   3.532
  896SOL    HW1 2428   3.357   2.679   3.527
  896SOL    HW2 2429   3.509   2.688   3.467
  897SOL     OW 2430   2.435   2.732   2.891
  897SOL    HW1 2431   2.479   2.821   2.882
  897SOL    HW2 2432   2.372   2.732   2.968
  898SOL     OW 2433   1.899   3.172   3.144
  898SOL    HW1 2434   1.952   3.123   3.212
  898SOL    HW2 2435   1.921   3.270   3.149
  899SOL     OW 2436   3.590   2.797   3.716
  899SOL    HW1 2437   3.544   2.790   3.627
  899SOL    HW2 2438   3.528   2.841   3.782
  900SOL     OW 2439   2.169   1.925   2.480
  900SOL    HW1 2440   2.158   2.019   2.513
  900SOL    HW2 2441   2.164   1.862   2.557
  901SOL     OW 2442   2.885   2.628   2.828
  901SOL    HW1 2443   2.900   2.649   2.924
  901SOL    HW2 2444   2.855   2.533   2.819
  902SOL     OW 2445   2.212   2.760   3.666
  902SOL    HW1 2446   2.288   2.804   3.714
  902SOL    HW2 2447   2.247   2.713   3.584
  903SOL     OW 2448   3.165   2.700   1.904
  903SOL    HW1 2449   3.199   2.607   1.919
  903SOL    HW2 2450   3.183   2.727   1.809
  904SOL     OW 2451   2.181   2.672   2.811
  904SOL    HW1 2452   2.274   2.708   2.816
  904SOL    HW2 2453   2.175   2.587   2.863
  905SOL     OW 2454   2.201   2.371   2.868
  905SOL    HW1 2455   2.149   2.288   2.851
  905SOL    HW2 2456   2.278   2.376   2.804
  906SOL     OW 2457   1.950   3.663   2.789
  906SOL    HW1 2458   1.908   3.577   2.762
  906SOL    HW2 2459   2.044   3.666   2.755
  907SOL     OW 2460   2.366   3.430   2.772
  907SOL    HW1 2461   2.432   3.504   2.781
  907SOL    HW2 2462   2.410   3.351   2.730
  908SOL     OW 2463   2.864   2.658   3.100
  908SOL    HW1 2464   2.905   2.626   3.186
  908SOL    HW2 2465   2.768   2.631   3.097
  909SOL     OW 2466   2.051   2.382   3.584
  909SOL    HW1 2467   2.110   2.342   3.514
  909SOL    HW2 2468   1.993   2.453   3.543
  910SOL     OW 2469   2.114   3.426   3.606
  910SOL    HW1 2470   2.084   3.483   3.682
  910SOL    HW2 2471   2.107   3.329   3.632
  911SOL     OW 2472   2.021   2.999   3.328
  911SOL    HW1 2473   2.043   2.938   3.404
  911SOL    HW2 2474   2.031   2.950   3.242
  912SOL     OW 2475   3.164   2.717   2.171
  912SOL    HW1 2476   3.078   2.686   2.213
  912SOL    HW2 2477   3.160   2.703   2.072
  913SOL     OW 2478   3.621   3.609   3.016
  913SOL    HW1 2479   3.682   3.639   2.943
  913SOL    HW2 2480   3.583   3.520   2.994
  914SOL     OW 2481   3.114   3.593   2.990
  914SOL    HW1 2482   3.198   3.598   2.936
  914SOL    HW2 2483   3.091   3.497   3.008
  915SOL     OW 2484   3.250   3.435   2.339
  915SOL    HW1 2485   3.317   3.447   2.265
  915SOL    HW2 2486   3.210   3.524   2.362
  916SOL     OW 2487   1.992   3.656   3.713
  916SOL    HW1 2488   1.951   3.582   3.766
  916SOL    HW2 2489   2.056   3.707   3.771
  917SOL     OW 2490   3.366   3.469   1.906
  917SOL    HW1 2491   3.274   3.506   1.913
  917SOL    HW2 2492   3.404   3.489   1.816
  918SOL     OW 2493   2.901   2.960   2.558
  918SOL    HW1 2494   2.831   2.913   2.612
  918SOL    HW2 2495   2.960   2.892   2.515
  919SOL     OW 2496   3.571   2.247   3.243
  919SOL    HW1 2497   3.644   2.316   3.247
  919SOL    HW2 2498   3.599   2.172   3.184
  920SOL     OW 2499   1.967   2.875   3.588
  920SOL    HW1 2500   1.890   2.842   3.642
  920SOL    HW2 2501   2.052   2.845   3.630
  921SOL     OW 2502   2.534   2.065   3.351
  921SOL    HW1 2503   2.624   2.049   3.311
  921SOL    HW2 2504   2.542   2.070   3.450
  922SOL     OW 2505   3.302   2.718   3.260
  922SOL    HW1 2506   3.245   2.770   3.197
  922SOL    HW2 2507   3.398   2.730   3.236
  923SOL     OW 2508   1.934   2.028   2.180
  923SOL    HW1 2509   1.917   2.111   2.126
  923SOL    HW2 2510   2.024   1.991   2.158
  924SOL     OW 2511   3.045   3.197   1.981
  924SOL    HW1 2512   2.946   3.186   1.983
  924SOL    HW2 2513   3.079   3.212   2.074
  925SOL     OW 2514   2.475   2.704   3.293
  925SOL    HW1 2515   2.531   2.785   3.276
  925SOL    HW2 2516   2.534   2.624   3.296
  926SOL     OW 2517   3.355   3.629   2.821
  926SOL    HW1 2518   3.388   3.693   2.752
  926SOL    HW2 2519   3.421   3.623   2.896
  927SOL     OW 2520   2.252   3.603   3.422
  927SOL    HW1 2521   2.161   3.644   3.420
  927SOL    HW2 2522   2.245   3.509   3.454
  928SOL     OW 2523   3.087   2.187   2.311
  928SOL    HW1 2524   3.152   2.113   2.300
  928SOL    HW2 2525   3.107   2.237   2.395
  929SOL     OW 2526   3.639   2.204   3.504
  929SOL    HW1 2527   3.622   2.235   3.410
  929SOL    HW2 2528   3.555   2.167   3.542
  930SOL     OW 2529   3.592   2.796   3.379
  930SOL    HW1 2530   3.630   2.887   3.394
  930SOL    HW2 2531   3.584   2.779   3.280
  931SOL     OW 2532   2.721   2.818   2.723
  931SOL    HW1 2533   2.775   2.749   2.771
  931SOL    HW2 2534   2.689   2.887   2.789
  932SOL     OW 2535   1.941   3.102   2.515
  932SOL    HW1 2536   1.940   3.055   2.603
  932SOL    HW2 2537   2.023   3.074   2.464
  933SOL     OW 2538   2.534   3.253   3.486
  933SOL    HW1 2539   2.456   3.203   3.524
  933SOL    HW2 2540   2.531   3.348   3.517
  934SOL     OW 2541   3.686   2.054   3.089
  934SOL    HW1 2542   3.682   1.964   3.133
  934SOL    HW2 2543   3.689   2.043   2.990
  935SOL     OW 2544   2.290   2.286   2.382
  935SOL    HW1 2545   2.320   2.214   2.320
  935SOL    HW2 2546   2.251   2.246   2.465
  936SOL     OW 2547   2.674   3.448   2.549
  936SOL    HW1 2548   2.706   3.458   2.455
  936SOL    HW2 2549   2.595   3.386   2.551
  937SOL     OW 2550   3.286   2.076   2.974
  937SOL    HW1 2551   3.338   2.011   3.029
  937SOL    HW2 2552   3.237   2.139   3.035
  938SOL     OW 2553   2.863   1.896   3.016
  938SOL    HW1 2554   2.800   1.824   2.985
  938SOL    HW2 2555   2.956   1.860   3.016
  939SOL     OW 2556   2.632   3.192   2.163
  939SOL    HW1 2557   2.586   3.105   2.180
  939SOL    HW2 2558   2.723   3.189   2.204
  940SOL     OW 2559   3.214   1.914   2.030
  940SOL    HW1 2560   3.249   1.873   1.946
  940SOL    HW2 2561   3.124   1.876   2.050
  941SOL     OW 2562   1.901   2.939   2.162
  941SOL    HW1 2563   2.000   2.928   2.153
  941SOL    HW2 2564   1.861   2.853   2.194
  942SOL     OW 2565   2.092   2.490   3.837
  942SOL    HW1 2566   1.999   2.488   3.874
  942SOL    HW2 2567   2.093   2.451   3.745
  943SOL     OW 2568   3.617   2.469   3.955
  943SOL    HW1 2569   3.605   2.456   3.856
  943SOL    HW2 2570   3.587   2.388   4.004
  944SOL     OW 2571   3.503   2.970   4.156
  944SOL    HW1 2572   3.589   2.972   4.104
  944SOL    HW2 2573   3.517   3.017   4.244
  945SOL     OW 2574   3.387   2.861   3.914
  945SOL    HW1 2575   3.324   2.785   3.927
  945SOL    HW2 2576   3.435   2.879   4.000
  946SOL     OW 2577   2.727   2.210   3.919
  946SOL    HW1 2578   2.786   2.273   3.870
  946SOL    HW2 2579   2.746   2.116   3.890
  947SOL     OW 2580   2.973   3.638   3.961
  947SOL    HW1 2581   2.913   3.576   4.011
  947SOL    HW2 2582   3.004   3.594   3.876
  948SOL     OW 2583   3.494   3.239   3.805
  948SOL    HW1 2584   3.462   3.333   3.795
  948SOL    HW2 2585   3.418   3.176   3.793
  949SOL     OW 2586   2.476   1.984   3.841
  949SOL    HW1 2587   2.574   1.962   3.848
  949SOL    HW2 2588   2.445   1.967   3.748
  950SOL     OW 2589   2.159   1.897   3.895
  950SOL    HW1 2590   2.208   1.981   3.874
  950SOL    HW2 2591   2.221   1.832   3.940
  951SOL     OW 2592   3.252   2.437   3.802
  951SOL    HW1 2593   3.198   2.416   3.883
  951SOL    HW2 2594   3.343   2.396   3.811
  952SOL     OW 2595   3.071   2.387   3.999
  952SOL    HW1 2596   3.084   2.303   4.053
  952SOL    HW2 2597   3.042   2.461   4.059
  953SOL     OW 2598   2.169   1.925   4.342
  953SOL    HW1 2599   2.158   2.019   4.375
  953SOL    HW2 2600   2.164   1.862   4.419
  954SOL     OW 2601   3.402   2.136   3.849
  954SOL    HW1 2602   3.341   2.061   3.872
  954SOL    HW2 2603   3.424   2.188   3.932
  955SOL     OW 2604   3.056   3.474   3.755
  955SOL    HW1 2605   3.062   3.381   3.792
  955SOL    HW2 2606   2.997   3.474   3.675
  956SOL     OW 2607   2.778   2.772   4.015
  956SOL    HW1 2608   2.841   2.810   3.947
  956SOL    HW2 2609   2.818   2.689   4.054
  957SOL     OW 2610   3.366   3.469   3.768
  957SOL    HW1 2611   3.274   3.506   3.775
  957SOL    HW2 2612   3.404   3.489   3.678
  958SOL     OW 2613   1.934   2.028   4.042
  958SOL    HW1 2614   1.917   2.111   3.988
  958SOL    HW2 2615   2.024   1.991   4.020
  959SOL     OW 2616   3.045   3.197   3.843
  959SOL    HW1 2617   2.946   3.186   3.845
  959SOL    HW2 2618   3.079   3.212   3.936
  960SOL     OW 2619   3.087   2.187   4.173
  960SOL    HW1 2620   3.152   2.113   4.162
  960SOL    HW2 2621   3.107   2.237   4.257
  961SOL     OW 2622   2.721   3.236   3.740
  961SOL    HW1 2623   2.675   3.251   3.828
  961SOL    HW2 2624   2.765   3.321   3.710
  962SOL     OW 2625   3.214   1.914   3.892
  962SOL    HW1 2626   3.249   1.873   3.808
  962SOL    HW2 2627   3.124   1.876   3.912
  963SOL     OW 2628   2.737   3.508   4.061
  963SOL    HW1 2629   2.660   3.473   4.007
  963SOL    HW2 2630   2.705   3.579   4.123
  964SOL     OW 2631   2.092   4.352   0.113
  964SOL    HW1 2632   1.999   4.350   0.150
  964SOL    HW2 2633   2.093   4.313   0.021
  965SOL     OW 2634   1.881   4.092   0.647
  965SOL    HW1 2635   1.799   4.135   0.686
  965SOL    HW2 2636   1.853   4.019   0.584
  966SOL     OW 2637   2.179   3.975   1.801
  966SOL    HW1 2638   2.250   4.046   1.807
  966SOL    HW2 2639   2.091   4.014   1.829
  967SOL     OW 2640   3.143   4.069   0.944
  967SOL    HW1 2641   3.057   4.019   0.931
  967SOL    HW2 2642   3.205   4.015   1.000
  968SOL     OW 2643   2.064   4.009   1.498
  968SOL    HW1 2644   1.984   4.069   1.485
  968SOL    HW2 2645   2.054   3.960   1.584
  969SOL     OW 2646   3.262   3.831   0.426
  969SOL    HW1 2647   3.238   3.794   0.336
  969SOL    HW2 2648   3.361   3.847   0.430
  970SOL     OW 2649   3.409   3.946   1.729
  970SOL    HW1 2650   3.404   3.983   1.821
  970SOL    HW2 2651   3.337   3.877   1.717
  971SOL     OW 2652   2.476   3.846   0.117
  971SOL    HW1 2653   2.574   3.824   0.124
  971SOL    HW2 2654   2.445   3.829   0.024
  972SOL     OW 2655   2.643   3.988   1.749
  972SOL    HW1 2656   2.710   3.927   1.792
  972SOL    HW2 2657   2.570   4.007   1.814
  973SOL     OW 2658   2.401   3.788   0.512
  973SOL    HW1 2659   2.320   3.789   0.570
  973SOL    HW2 2660   2.404   3.871   0.457
  974SOL     OW 2661   2.797   3.960   0.480
  974SOL    HW1 2662   2.749   4.001   0.402
  974SOL    HW2 2663   2.896   3.958   0.461
  975SOL     OW 2664   2.777   3.813   1.402
  975SOL    HW1 2665   2.802   3.793   1.307
  975SOL    HW2 2666   2.849   3.869   1.444
  976SOL     OW 2667   2.366   3.774   1.740
  976SOL    HW1 2668   2.324   3.717   1.670
  976SOL    HW2 2669   2.300   3.843   1.772
  977SOL     OW 2670   3.071   4.249   0.275
  977SOL    HW1 2671   3.084   4.165   0.329
  977SOL    HW2 2672   3.042   4.323   0.335
  978SOL     OW 2673   2.594   4.358   1.064
  978SOL    HW1 2674   2.653   4.332   0.988
  978SOL    HW2 2675   2.566   4.454   1.053
  979SOL     OW 2676   2.169   3.787   0.618
  979SOL    HW1 2677   2.158   3.881   0.651
  979SOL    HW2 2678   2.164   3.724   0.695
  980SOL     OW 2679   3.402   3.998   0.125
  980SOL    HW1 2680   3.341   3.923   0.148
  980SOL    HW2 2681   3.424   4.050   0.208
  981SOL     OW 2682   2.201   4.233   1.006
  981SOL    HW1 2683   2.149   4.150   0.989
  981SOL    HW2 2684   2.278   4.238   0.942
  982SOL     OW 2685   3.588   3.859   0.523
  982SOL    HW1 2686   3.661   3.842   0.456
  982SOL    HW2 2687   3.557   3.772   0.561
  983SOL     OW 2688   2.876   3.960   0.971
  983SOL    HW1 2689   2.868   3.924   0.878
  983SOL    HW2 2690   2.874   3.884   1.036
  984SOL     OW 2691   3.087   4.049   0.449
  984SOL    HW1 2692   3.152   3.975   0.438
  984SOL    HW2 2693   3.107   4.099   0.533
  985SOL     OW 2694   3.686   3.916   1.227
  985SOL    HW1 2695   3.682   3.826   1.271
  985SOL    HW2 2696   3.689   3.905   1.128
  986SOL     OW 2697   2.087   3.999   2.858
  986SOL    HW1 2698   2.122   3.982   2.950
  986SOL    HW2 2699   1.999   3.954   2.846
  987SOL     OW 2700   3.456   3.838   3.342
  987SOL    HW1 2701   3.438   3.905   3.270
  987SOL    HW2 2702   3.453   3.884   3.431
  988SOL     OW 2703   2.179   3.975   3.663
  988SOL    HW1 2704   2.250   4.046   3.669
  988SOL    HW2 2705   2.091   4.014   3.691
  989SOL     OW 2706   2.064   4.009   3.360
  989SOL    HW1 2707   1.984   4.069   3.347
  989SOL    HW2 2708   2.054   3.960   3.446
  990SOL     OW 2709   3.262   3.831   2.288
  990SOL    HW1 2710   3.238   3.794   2.198
  990SOL    HW2 2711   3.361   3.847   2.292
  991SOL     OW 2712   3.409   3.946   3.591
  991SOL    HW1 2713   3.404   3.983   3.683
  991SOL    HW2 2714   3.337   3.877   3.579
  992SOL     OW 2715   2.476   3.846   1.979
  992SOL    HW1 2716   2.574   3.824   1.986
  992SOL    HW2 2717   2.445   3.829   1.886
  993SOL     OW 2718   3.213   4.314   3.295
  993SOL    HW1 2719   3.241   4.271   3.380
  993SOL    HW2 2720   3.238   4.410   3.296
  994SOL     OW 2721   2.159   3.759   2.033
  994SOL    HW1 2722   2.208   3.843   2.012
  994SOL    HW2 2723   2.221   3.694   2.078
  995SOL     OW 2724   2.797   3.960   2.342
  995SOL    HW1 2725   2.749   4.001   2.264
  995SOL    HW2 2726   2.896   3.958   2.323
  996SOL     OW 2727   2.777   3.813   3.264
  996SOL    HW1 2728   2.802   3.793   3.169
  996SOL    HW2 2729   2.849   3.869   3.306
  997SOL     OW 2730   2.366   3.774   3.602
  997SOL    HW1 2731   2.324   3.717   3.532
  997SOL    HW2 2732   2.300   3.843   3.634
  998SOL     OW 2733   2.594   4.358   2.926
  998SOL    HW1 2734   2.653   4.332   2.850
  998SOL    HW2 2735   2.566   4.454   2.915
  999SOL     OW 2736   3.588   3.859   2.385
  999SOL    HW1 2737   3.661   3.842   2.318
  999SOL    HW2 2738   3.557   3.772   2.423
 1000SOL     OW 2739   3.703   3.899   2.825
 1000SOL    HW1 2740   3.742   3.814   2.789
 1000SOL    HW2 2741   3.605   3.901   2.806
 1001SOL     OW 2742   2.534   3.927   3.351
 1001SOL    HW1 2743   2.624   3.911   3.311
 1001SOL    HW2 2744   2.542   3.932   3.450
 1002SOL     OW 2745   1.937   4.069   1.895
 1002SOL    HW1 2746   1.845   4.041   1.866
 1002SOL    HW2 2747   1.968   4.146   1.839
 1003SOL     OW 2748   1.934   3.890   2.180
 1003SOL    HW1 2749   1.917   3.973   2.126
 1003SOL    HW2 2750   2.024   3.853   2.158
 1004SOL     OW 2751   3.087   4.049   2.311
 1004SOL    HW1 2752   3.152   3.975   2.300
 1004SOL    HW2 2753   3.107   4.099   2.395
 1005SOL     OW 2754   3.286   3.938   2.974
 1005SOL    HW1 2755   3.338   3.873   3.029
 1005SOL    HW2 2756   3.237   4.001   3.035
 1006SOL     OW 2757   2.863   3.758   3.016
 1006SOL    HW1 2758   2.800   3.686   2.985
 1006SOL    HW2 2759   2.956   3.722   3.016
 1007SOL     OW 2760   3.617   4.331   3.955
 1007SOL    HW1 2761   3.605   4.318   3.856
 1007SOL    HW2 2762   3.587   4.250   4.004
 1008SOL     OW 2763   2.727   4.072   3.919
 1008SOL    HW1 2764   2.786   4.135   3.870
 1008SOL    HW2 2765   2.746   3.978   3.890
 1009SOL     OW 2766   2.476   3.846   3.841
 1009SOL    HW1 2767   2.574   3.824   3.848
 1009SOL    HW2 2768   2.445   3.829   3.748
 1010SOL     OW 2769   2.159   3.759   3.895
 1010SOL    HW1 2770   2.208   3.843   3.874
 1010SOL    HW2 2771   2.221   3.694   3.940
 1011SOL     OW 2772   3.402   3.998   3.849
 1011SOL    HW1 2773   3.341   3.923   3.872
 1011SOL    HW2 2774   3.424   4.050   3.932
 1012SOL     OW 2775   3.214   3.776   3.892
 1012SOL    HW1 2776   3.249   3.735   3.808
 1012SOL    HW2 2777   3.124   3.738   3.912
 1013SOL     OW 2778   3.743   0.368   0.647
 1013SOL    HW1 2779   3.661   0.411   0.686
 1013SOL    HW2 2780   3.715   0.295   0.584
 1014SOL     OW 2781   4.059   1.435   1.061
 1014SOL    HW1 2782   3.981   1.404   1.008
 1014SOL    HW2 2783   4.117   1.493   1.004
 1015SOL     OW 2784   3.800   0.811   0.789
 1015SOL    HW1 2785   3.899   0.799   0.798
 1015SOL    HW2 2786   3.776   0.906   0.810
 1016SOL     OW 2787   3.802   0.556   1.386
 1016SOL    HW1 2788   3.894   0.555   1.345
 1016SOL    HW2 2789   3.796   0.630   1.453
 1017SOL     OW 2790   3.761   1.310   1.282
 1017SOL    HW1 2791   3.814   1.261   1.350
 1017SOL    HW2 2792   3.783   1.408   1.287
 1018SOL     OW 2793   4.043   0.810   0.949
 1018SOL    HW1 2794   4.136   0.846   0.954
 1018SOL    HW2 2795   4.037   0.725   1.001
 1019SOL     OW 2796   4.228   1.568   0.910
 1019SOL    HW1 2797   4.294   1.642   0.919
 1019SOL    HW2 2798   4.272   1.489   0.868
 1020SOL     OW 2799   3.764   0.544   1.114
 1020SOL    HW1 2800   3.849   0.511   1.073
 1020SOL    HW2 2801   3.777   0.559   1.212
 1021SOL     OW 2802   3.913   0.520   1.722
 1021SOL    HW1 2803   3.972   0.480   1.652
 1021SOL    HW2 2804   3.855   0.591   1.681
 1022SOL     OW 2805   3.883   1.137   1.466
 1022SOL    HW1 2806   3.905   1.076   1.542
 1022SOL    HW2 2807   3.893   1.088   1.380
 1023SOL     OW 2808   3.829   1.013   1.726
 1023SOL    HW1 2809   3.752   0.980   1.780
 1023SOL    HW2 2810   3.914   0.983   1.768
 1024SOL     OW 2811   3.954   0.628   1.975
 1024SOL    HW1 2812   3.861   0.626   2.012
 1024SOL    HW2 2813   3.955   0.589   1.883
 1025SOL     OW 2814   3.949   0.275   2.858
 1025SOL    HW1 2815   3.984   0.258   2.950
 1025SOL    HW2 2816   3.861   0.230   2.846
 1026SOL     OW 2817   3.955   1.713   2.345
 1026SOL    HW1 2818   3.989   1.790   2.399
 1026SOL    HW2 2819   3.999   1.713   2.255
 1027SOL     OW 2820   3.954   1.434   2.400
 1027SOL    HW1 2821   3.928   1.530   2.400
 1027SOL    HW2 2822   3.883   1.380   2.445
 1028SOL     OW 2823   3.751   1.596   1.979
 1028SOL    HW1 2824   3.732   1.500   2.000
 1028SOL    HW2 2825   3.718   1.654   2.054
 1029SOL     OW 2826   3.800   0.811   2.651
 1029SOL    HW1 2827   3.899   0.799   2.660
 1029SOL    HW2 2828   3.776   0.906   2.672
 1030SOL     OW 2829   3.854   1.821   3.433
 1030SOL    HW1 2830   3.844   1.806   3.532
 1030SOL    HW2 2831   3.768   1.857   3.397
 1031SOL     OW 2832   3.761   1.310   3.144
 1031SOL    HW1 2833   3.814   1.261   3.212
 1031SOL    HW2 2834   3.783   1.408   3.149
 1032SOL     OW 2835   3.764   0.544   2.976
 1032SOL    HW1 2836   3.849   0.511   2.935
 1032SOL    HW2 2837   3.777   0.559   3.074
 1033SOL     OW 2838   3.913   0.520   3.584
 1033SOL    HW1 2839   3.972   0.480   3.514
 1033SOL    HW2 2840   3.855   0.591   3.543
 1034SOL     OW 2841   3.976   1.564   3.606
 1034SOL    HW1 2842   3.946   1.621   3.682
 1034SOL    HW2 2843   3.969   1.467   3.632
 1035SOL     OW 2844   3.883   1.137   3.328
 1035SOL    HW1 2845   3.905   1.076   3.404
 1035SOL    HW2 2846   3.893   1.088   3.242
 1036SOL     OW 2847   4.096   1.288   3.352
 1036SOL    HW1 2848   4.083   1.381   3.318
 1036SOL    HW2 2849   4.012   1.236   3.339
 1037SOL     OW 2850   3.829   1.013   3.588
 1037SOL    HW1 2851   3.752   0.980   3.642
 1037SOL    HW2 2852   3.914   0.983   3.630
 1038SOL     OW 2853   3.799   0.345   1.895
 1038SOL    HW1 2854   3.707   0.317   1.866
 1038SOL    HW2 2855   3.830   0.422   1.839
 1039SOL     OW 2856   3.803   1.240   2.515
 1039SOL    HW1 2857   3.802   1.193   2.603
 1039SOL    HW2 2858   3.885   1.212   2.464
 1040SOL     OW 2859   3.954   0.628   3.837
 1040SOL    HW1 2860   3.861   0.626   3.874
 1040SOL    HW2 2861   3.955   0.589   3.745
 1041SOL     OW 2862   3.751   1.596   3.841
 1041SOL    HW1 2863   3.732   1.500   3.862
 1041SOL    HW2 2864   3.718   1.654   3.916
 1042SOL     OW 2865   4.031   0.063   4.342
 1042SOL    HW1 2866   4.020   0.157   4.375
 1042SOL    HW2 2867   4.026   0.000   4.419
 1043SOL     OW 2868   3.799   0.345   3.757
 1043SOL    HW1 2869   3.707   0.317   3.728
 1043SOL    HW2 2870   3.830   0.422   3.701
 1044SOL     OW 2871   3.796   0.166   4.042
 1044SOL    HW1 2872   3.779   0.249   3.988
 1044SOL    HW2 2873   3.886   0.129   4.020
 1045SOL     OW 2874   3.954   2.490   0.113
 1045SOL    HW1 2875   3.861   2.488   0.150
 1045SOL    HW2 2876   3.955   2.451   0.021
 1046SOL     OW 2877   3.743   2.230   0.647
 1046SOL    HW1 2878   3.661   2.273   0.686
 1046SOL    HW2 2879   3.715   2.157   0.584
 1047SOL     OW 2880   4.059   3.297   1.061
 1047SOL    HW1 2881   3.981   3.266   1.008
 1047SOL    HW2 2882   4.117   3.355   1.004
 1048SOL     OW 2883   3.964   2.953   0.886
 1048SOL    HW1 2884   3.978   2.869   0.938
 1048SOL    HW2 2885   3.909   3.017   0.941
 1049SOL     OW 2886   3.751   3.458   0.117
 1049SOL    HW1 2887   3.732   3.362   0.138
 1049SOL    HW2 2888   3.718   3.516   0.192
 1050SOL     OW 2889   3.837   2.599   1.597
 1050SOL    HW1 2890   3.925   2.586   1.642
 1050SOL    HW2 2891   3.824   2.696   1.575
 1051SOL     OW 2892   3.854   3.683   1.571
 1051SOL    HW1 2893   3.844   3.668   1.670
 1051SOL    HW2 2894   3.768   3.719   1.535
 1052SOL     OW 2895   4.263   1.926   0.512
 1052SOL    HW1 2896   4.182   1.927   0.570
 1052SOL    HW2 2897   4.266   2.009   0.457
 1053SOL     OW 2898   4.031   1.925   0.618
 1053SOL    HW1 2899   4.020   2.019   0.651
 1053SOL    HW2 2900   4.026   1.862   0.695
 1054SOL     OW 2901   3.732   3.188   0.200
 1054SOL    HW1 2902   3.639   3.209   0.169
 1054SOL    HW2 2903   3.742   3.089   0.213
 1055SOL     OW 2904   4.228   3.430   0.910
 1055SOL    HW1 2905   4.294   3.504   0.919
 1055SOL    HW2 2906   4.272   3.351   0.868
 1056SOL     OW 2907   3.976   3.426   1.744
 1056SOL    HW1 2908   3.946   3.483   1.820
 1056SOL    HW2 2909   3.969   3.329   1.770
 1057SOL     OW 2910   3.883   2.999   1.466
 1057SOL    HW1 2911   3.905   2.938   1.542
 1057SOL    HW2 2912   3.893   2.950   1.380
 1058SOL     OW 2913   4.096   3.150   1.490
 1058SOL    HW1 2914   4.083   3.243   1.456
 1058SOL    HW2 2915   4.012   3.098   1.477
 1059SOL     OW 2916   3.829   2.875   1.726
 1059SOL    HW1 2917   3.752   2.842   1.780
 1059SOL    HW2 2918   3.914   2.845   1.768
 1060SOL     OW 2919   3.796   2.028   0.318
 1060SOL    HW1 2920   3.779   2.111   0.264
 1060SOL    HW2 2921   3.886   1.991   0.296
 1061SOL     OW 2922   3.763   2.939   0.300
 1061SOL    HW1 2923   3.862   2.928   0.291
 1061SOL    HW2 2924   3.723   2.853   0.332
 1062SOL     OW 2925   4.059   3.297   2.923
 1062SOL    HW1 2926   3.981   3.266   2.870
 1062SOL    HW2 2927   4.117   3.355   2.866
 1063SOL     OW 2928   3.954   3.296   2.400
 1063SOL    HW1 2929   3.928   3.392   2.400
 1063SOL    HW2 2930   3.883   3.242   2.445
 1064SOL     OW 2931   3.964   2.953   2.748
 1064SOL    HW1 2932   3.978   2.869   2.800
 1064SOL    HW2 2933   3.909   3.017   2.803
 1065SOL     OW 2934   3.800   2.673   2.651
 1065SOL    HW1 2935   3.899   2.661   2.660
 1065SOL    HW2 2936   3.776   2.768   2.672
 1066SOL     OW 2937   3.926   2.147   3.360
 1066SOL    HW1 2938   3.846   2.207   3.347
 1066SOL    HW2 2939   3.916   2.098   3.446
 1067SOL     OW 2940   4.263   1.926   2.374
 1067SOL    HW1 2941   4.182   1.927   2.432
 1067SOL    HW2 2942   4.266   2.009   2.319
 1068SOL     OW 2943   3.802   2.418   3.248
 1068SOL    HW1 2944   3.894   2.417   3.207
 1068SOL    HW2 2945   3.796   2.492   3.315
 1069SOL     OW 2946   4.228   3.430   2.772
 1069SOL    HW1 2947   4.294   3.504   2.781
 1069SOL    HW2 2948   4.272   3.351   2.730
 1070SOL     OW 2949   3.883   2.999   3.328
 1070SOL    HW1 2950   3.905   2.938   3.404
 1070SOL    HW2 2951   3.893   2.950   3.242
 1071SOL     OW 2952   3.854   3.656   3.713
 1071SOL    HW1 2953   3.813   3.582   3.766
 1071SOL    HW2 2954   3.918   3.707   3.771
 1072SOL     OW 2955   3.799   2.207   1.895
 1072SOL    HW1 2956   3.707   2.179   1.866
 1072SOL    HW2 2957   3.830   2.284   1.839
 1073SOL     OW 2958   4.337   2.704   3.293
 1073SOL    HW1 2959   4.393   2.785   3.276
 1073SOL    HW2 2960   4.396   2.624   3.296
 1074SOL     OW 2961   3.763   2.939   2.162
 1074SOL    HW1 2962   3.862   2.928   2.153
 1074SOL    HW2 2963   3.723   2.853   2.194
 1075SOL     OW 2964   4.021   1.897   3.895
 1075SOL    HW1 2965   4.070   1.981   3.874
 1075SOL    HW2 2966   4.083   1.832   3.940
 1076SOL     OW 2967   3.799   2.207   3.757
 1076SOL    HW1 2968   3.707   2.179   3.728
 1076SOL    HW2 2969   3.830   2.284   3.701
 1077SOL     OW 2970   3.763   2.939   4.024
 1077SOL    HW1 2971   3.862   2.928   4.015
 1077SOL    HW2 2972   3.723   2.853   4.056
 1078SOL     OW 2973   3.954   4.352   0.113
 1078SOL    HW1 2974   3.861   4.350   0.150
 1078SOL    HW2 2975   3.955   4.313   0.021
 1079SOL     OW 2976   4.031   3.937   1.231
 1079SOL    HW1 2977   4.008   3.974   1.321
 1079SOL    HW2 2978   4.001   3.842   1.225
 1080SOL     OW 2979   4.031   3.787   0.618
 1080SOL    HW1 2980   4.020   3.881   0.651
 1080SOL    HW2 2981   4.026   3.724   0.695
 1081SOL     OW 2982   4.063   4.233   1.006
 1081SOL    HW1 2983   4.011   4.150   0.989
 1081SOL    HW2 2984   4.140   4.238   0.942
 1082SOL     OW 2985   3.954   4.352   1.975
 1082SOL    HW1 2986   3.861   4.350   2.012
 1082SOL    HW2 2987   3.955   4.313   1.883
 1083SOL     OW 2988   3.926   4.009   3.360
 1083SOL    HW1 2989   3.846   4.069   3.347
 1083SOL    HW2 2990   3.916   3.960   3.446
 1084SOL     OW 2991   4.263   3.788   2.374
 1084SOL    HW1 2992   4.182   3.789   2.432
 1084SOL    HW2 2993   4.266   3.871   2.319
 1085SOL     OW 2994   4.031   3.937   3.093
 1085SOL    HW1 2995   4.008   3.974   3.183
 1085SOL    HW2 2996   4.001   3.842   3.087
 1086SOL     OW 2997   3.954   4.352   3.837
 1086SOL    HW1 2998   3.861   4.350   3.874
 1086SOL    HW2 2999   3.955   4.313   3.745
 1087SOL     OW 3000   4.263   3.788   4.236
 1087SOL    HW1 3001   4.182   3.789   4.294
 1087SOL    HW2 3002   4.266   3.871   4.181
 1088SOL     OW 3003   4.031   3.787   4.342
 1088SOL    HW1 3004   4.020   3.881   4.375
 1088SOL    HW2 3005   4.026   3.724   4.419
   4.10000   4.10000   4.10000
