[ moleculetype ]
; Name nrexcl
ALK       3

[ atoms ]
;   nr      type  resnr resid  atom  cgnr   charge     mass
     1       CH3     1  ALK     CA1     1    0.000  15.0000
     2       CH2     1  ALK     CA2     2    0.000  14.0000
     3       CH2     1  ALK     CA3     3    0.000  14.0000
     4       CH2     1  ALK     CA4     4    0.000  14.0000
     5       CH3     1  ALK     CA5     5    0.000  15.0000

[ bonds ]
; ai  aj  fu    c0, c1, ...
   1   2   1    0.153    334720.0    0.153    334720.0 ;  CA1   CA2 
   2   3   1    0.153    334720.0    0.153    334720.0 ;  CA2   CA3 
   3   4   1    0.153    334720.0    0.153    334720.0 ;  CA3   CA4 
   4   5   1    0.153    334720.0    0.153    334720.0 ;  CA4   CA5 

[ pairs ]
; ai  aj  fu    c0, c1, ... (turn off for the Ry-Bell potential)
   1   4   1                        ; CA1   CA4 
   2   5   1                        ; CA2   CA5 

[ angles ]
   1   2   3   1  111.000  460.200  111.000  460.200 ; CA1   CA2   CA3 
   2   3   4   1  111.000  460.200  111.000  460.200 ; CA2   CA3   CA4 
   3   4   5   1  111.000  460.200  111.000  460.200 ; CA3   CA4   CA5 


[ dihedrals ]
; ai  aj  ak  al  fu    c0, c1, c2, c3, c4, c5 (Ry-Bell modified to include 1-4 interaction)
   4   3   2   1   1    0.000    5.920   3    0.000    5.920   3 ;
;   4   3   2   1   3    5.2925   14.7309   -19.672   2.2812   25.7547   -32.5236;    
;   5   4   3   2   1    5.2925   14.7309   -19.672   2.2812   25.7547   -32.5236;    
    5   4   3   2   1    0.000    5.920   3    0.000    5.920   3 ;

;    4   3   2   1   1    9.28  12.16  -13.12  -3.06  26.24  -31.5;
;    5   4   3   2   1    9.28  12.16  -13.12  -3.06  26.24  -31.5;
